/*--------------------------------*- C++ -*----------------------------------*\
| =========                 |                                                 |
| \\      /  F ield         | OpenFOAM: The Open Source CFD Toolbox           |
|  \\    /   O peration     | Version:  2312                                  |
|   \\  /    A nd           | Website:  www.openfoam.com                      |
|    \\/     M anipulation  |                                                 |
\*---------------------------------------------------------------------------*/
FoamFile
{
    version     2.0;
    format      ascii;
    arch        "LSB;label=32;scalar=64";
    class       volScalarField;
    location    "38.405";
    object      nut;
}
// * * * * * * * * * * * * * * * * * * * * * * * * * * * * * * * * * * * * * //

dimensions      [0 2 -1 0 0 0 0];

internalField   nonuniform List<scalar> 
4000
(
7.25366e-11
1.40134e-10
1.6723e-09
1.21673e-08
5.3396e-08
1.70037e-07
4.35217e-07
9.48977e-07
1.8272e-06
3.18281e-06
5.10559e-06
7.64845e-06
1.08242e-05
1.46117e-05
1.89669e-05
2.38338e-05
2.9153e-05
3.48673e-05
4.09247e-05
4.72789e-05
5.389e-05
6.07239e-05
6.77513e-05
7.49473e-05
8.22906e-05
8.97629e-05
9.73485e-05
0.000105034
0.000112807
0.000120657
0.000128576
0.000136556
0.000144588
0.000152668
0.000160789
0.000168946
0.000177134
0.00018535
0.00019359
0.000201849
0.000210126
0.000218417
0.00022672
0.000235031
0.00024335
0.000251673
0.000259999
0.000268326
0.000276653
0.000284978
0.000293298
0.000301614
0.000309924
0.000318227
0.00032652
0.000334805
0.000343078
0.000351341
0.000359591
0.000367827
0.00037605
0.000384258
0.000392451
0.000400627
0.000408787
0.00041693
0.000425055
0.000433161
0.000441249
0.000449317
0.000457366
0.000465394
0.000473401
0.000481388
0.000489353
0.000497296
0.000505217
0.000513116
0.000520991
0.000528844
0.000536673
0.000544479
0.000552261
0.000560019
0.000567752
0.000575461
0.000583145
0.000590805
0.000598439
0.000606047
0.00061363
0.000621188
0.000628719
0.000636225
0.000643705
0.000651158
0.000658585
0.000665985
0.000673359
0.000680706
0.000688026
0.00069532
0.000702586
0.000709825
0.000717037
0.000724222
0.000731379
0.00073851
0.000745612
0.000752687
0.000759735
0.000766755
0.000773747
0.000780712
0.000787649
0.000794558
0.00080144
0.000808293
0.000815119
0.000821917
0.000828687
0.000835429
0.000842143
0.00084883
0.000855488
0.000862119
0.000868721
0.000875296
0.000881843
0.000888361
0.000894852
0.000901315
0.00090775
0.000914157
0.000920537
0.000926888
0.000933212
0.000939508
0.000945776
0.000952016
0.000958228
0.000964413
0.00097057
0.0009767
0.000982801
0.000988876
0.000994922
0.00100094
0.00100693
0.0010129
0.00101883
0.00102474
0.00103063
0.00103648
0.00104231
0.00104811
0.00105388
0.00105963
0.00106535
0.00107104
0.0010767
0.00108234
0.00108795
0.00109354
0.0010991
0.00110463
0.00111013
0.00111561
0.00112106
0.00112648
0.00113188
0.00113725
0.0011426
0.00114792
0.00115321
0.00115848
0.00116372
0.00116894
0.00117412
0.00117929
0.00118442
0.00118954
0.00119462
0.00119968
0.00120472
0.00120973
0.00121471
0.00121967
0.0012246
0.00122951
0.00123439
0.00123925
0.00124408
0.00124889
0.00125367
0.00125843
0.00126316
0.00126787
0.00127255
0.00127721
0.00128185
0.00128646
0.00129104
0.0012956
0.00130014
0.00130465
0.00130914
0.00131361
0.00131805
0.00132246
0.00132686
0.00133123
0.00133557
0.0013399
0.00134419
0.00134847
0.00135272
0.00135695
0.00136116
0.00136534
0.0013695
0.00137363
0.00137775
0.00138184
0.0013859
0.00138995
0.00139397
0.00139797
0.00140195
0.0014059
0.00140983
0.00141374
0.00141763
0.0014215
0.00142534
0.00142916
0.00143296
0.00143674
0.0014405
0.00144423
0.00144794
0.00145163
0.0014553
0.00145895
0.00146258
0.00146618
0.00146977
0.00147333
0.00147687
0.00148039
0.00148389
0.00148737
0.00149083
0.00149427
0.00149769
0.00150108
0.00150446
0.00150781
0.00151115
0.00151447
0.00151776
0.00152104
0.00152429
0.00152752
0.00153074
0.00153393
0.00153711
0.00154027
0.0015434
0.00154652
0.00154961
0.00155269
0.00155575
0.00155879
0.00156181
0.00156481
0.00156779
0.00157075
0.0015737
0.00157662
0.00157953
0.00158241
0.00158528
0.00158813
0.00159096
0.00159378
0.00159657
0.00159935
0.00160211
0.00160485
0.00160757
0.00161027
0.00161296
0.00161563
0.00161828
0.00162091
0.00162353
0.00162612
0.0016287
0.00163126
0.00163381
0.00163634
0.00163885
0.00164134
0.00164382
0.00164628
0.00164872
0.00165114
0.00165355
0.00165594
0.00165832
0.00166068
0.00166302
0.00166534
0.00166765
0.00166994
0.00167222
0.00167448
0.00167672
0.00167895
0.00168116
0.00168336
0.00168554
0.0016877
0.00168985
0.00169198
0.0016941
0.0016962
0.00169828
0.00170035
0.00170241
0.00170445
0.00170647
0.00170848
0.00171047
0.00171245
0.00171442
0.00171637
0.0017183
0.00172022
0.00172212
0.00172401
0.00172589
0.00172775
0.0017296
0.00173143
0.00173325
0.00173505
0.00173684
0.00173861
0.00174038
0.00174212
0.00174386
0.00174558
0.00174728
0.00174897
0.00175065
0.00175232
0.00175397
0.0017556
0.00175723
0.00175884
0.00176044
0.00176202
0.00176359
0.00176515
0.0017667
0.00176823
0.00176975
0.00177126
0.00177275
0.00177423
0.0017757
0.00177715
0.0017786
0.00178003
0.00178145
0.00178285
0.00178425
0.00178563
0.001787
0.00178836
0.0017897
0.00179104
0.00179236
0.00179367
0.00179497
0.00179626
0.00179753
0.0017988
0.00180005
0.00180129
0.00180252
0.00180374
0.00180495
0.00180614
0.00180733
0.0018085
0.00180966
0.00181082
0.00181196
0.00181309
0.00181421
0.00181532
0.00181642
0.00181751
0.00181858
0.00181965
0.00182071
0.00182176
0.00182279
0.00182382
0.00182484
0.00182584
0.00182684
0.00182783
0.00182881
0.00182977
0.00183073
0.00183168
0.00183262
0.00183355
0.00183447
0.00183538
0.00183628
0.00183717
0.00183806
0.00183893
0.00183979
0.00184065
0.0018415
0.00184234
0.00184317
0.00184399
0.0018448
0.0018456
0.0018464
0.00184718
0.00184796
0.00184873
0.0018495
0.00185025
0.00185099
0.00185173
0.00185246
0.00185318
0.0018539
0.0018546
0.0018553
0.00185599
0.00185667
0.00185735
0.00185802
0.00185868
0.00185933
0.00185998
0.00186061
0.00186125
0.00186187
0.00186249
0.0018631
0.0018637
0.0018643
0.00186489
0.00186547
0.00186604
0.00186661
0.00186718
0.00186773
0.00186828
0.00186883
0.00186936
0.00186989
0.00187042
0.00187094
0.00187145
0.00187196
0.00187246
0.00187295
0.00187344
0.00187392
0.0018744
0.00187487
0.00187534
0.0018758
0.00187625
0.0018767
0.00187715
0.00187759
0.00187802
0.00187845
0.00187887
0.00187929
0.0018797
0.00188011
0.00188051
0.00188091
0.00188131
0.0018817
0.00188208
0.00188246
0.00188283
0.0018832
0.00188357
0.00188393
0.00188429
0.00188464
0.00188499
0.00188533
0.00188567
0.00188601
0.00188634
0.00188667
0.001887
0.00188732
0.00188763
0.00188794
0.00188825
0.00188856
0.00188886
0.00188916
0.00188945
0.00188974
0.00189003
0.00189032
0.0018906
0.00189088
0.00189115
0.00189142
0.00189169
0.00189195
0.00189222
0.00189248
0.00189273
0.00189298
0.00189323
0.00189348
0.00189373
0.00189397
0.00189421
0.00189445
0.00189468
0.00189491
0.00189514
0.00189537
0.00189559
0.00189581
0.00189603
0.00189625
0.00189647
0.00189668
0.00189689
0.0018971
0.0018973
0.00189751
0.00189771
0.00189791
0.00189811
0.00189831
0.0018985
0.00189869
0.00189889
0.00189907
0.00189926
0.00189945
0.00189963
0.00189982
0.0019
0.00190018
0.00190036
0.00190053
0.00190071
0.00190088
0.00190105
0.00190123
0.0019014
0.00190156
0.00190173
0.0019019
0.00190206
0.00190223
0.00190239
0.00190255
0.00190271
0.00190287
0.00190303
0.00190319
0.00190335
0.0019035
0.00190366
0.00190381
0.00190396
0.00190412
0.00190427
0.00190442
0.00190457
0.00190472
0.00190487
0.00190502
0.00190516
0.00190531
0.00190546
0.0019056
0.00190575
0.00190589
0.00190603
0.00190618
0.00190632
0.00190646
0.00190661
0.00190675
0.00190689
0.00190703
0.00190717
0.00190731
0.00190745
0.00190759
0.00190773
0.00190787
0.00190801
0.00190814
0.00190828
0.00190842
0.00190856
0.0019087
0.00190883
0.00190897
0.00190911
0.00190924
0.00190938
0.00190952
0.00190965
0.00190979
0.00190992
0.00191006
0.0019102
0.00191033
0.00191047
0.0019106
0.00191074
0.00191088
0.00191101
0.00191115
0.00191128
0.00191142
0.00191156
0.00191169
0.00191183
0.00191196
0.0019121
0.00191224
0.00191237
0.00191251
0.00191264
0.00191278
0.00191292
0.00191305
0.00191319
0.00191333
0.00191346
0.0019136
0.00191374
0.00191388
0.00191401
0.00191415
0.00191429
0.00191443
0.00191456
0.0019147
0.00191484
0.00191498
0.00191512
0.00191525
0.00191539
0.00191553
0.00191567
0.00191581
0.00191595
0.00191609
0.00191623
0.00191637
0.00191651
0.00191665
0.00191679
0.00191693
0.00191707
0.00191721
0.00191735
0.00191749
0.00191763
0.00191777
0.00191791
0.00191805
0.0019182
0.00191834
0.00191848
0.00191862
0.00191876
0.00191891
0.00191905
0.00191919
0.00191933
0.00191948
0.00191962
0.00191976
0.0019199
0.00192005
0.00192019
0.00192033
0.00192048
0.00192062
0.00192077
0.00192091
0.00192105
0.0019212
0.00192134
0.00192148
0.00192163
0.00192177
0.00192192
0.00192206
0.00192221
0.00192235
0.00192249
0.00192264
0.00192278
0.00192293
0.00192307
0.00192322
0.00192336
0.00192351
0.00192365
0.00192379
0.00192394
0.00192408
0.00192423
0.00192437
0.00192452
0.00192466
0.00192481
0.00192495
0.0019251
0.00192524
0.00192538
0.00192553
0.00192567
0.00192582
0.00192596
0.0019261
0.00192625
0.00192639
0.00192654
0.00192668
0.00192682
0.00192697
0.00192711
0.00192725
0.0019274
0.00192754
0.00192768
0.00192783
0.00192797
0.00192811
0.00192825
0.0019284
0.00192854
0.00192868
0.00192882
0.00192896
0.0019291
0.00192924
0.00192939
0.00192953
0.00192967
0.00192981
0.00192995
0.00193009
0.00193023
0.00193037
0.00193051
0.00193065
0.00193079
0.00193092
0.00193106
0.0019312
0.00193134
0.00193148
0.00193161
0.00193175
0.00193189
0.00193203
0.00193216
0.0019323
0.00193243
0.00193257
0.0019327
0.00193284
0.00193297
0.00193311
0.00193324
0.00193338
0.00193351
0.00193364
0.00193378
0.00193391
0.00193404
0.00193417
0.00193431
0.00193444
0.00193457
0.0019347
0.00193483
0.00193496
0.00193509
0.00193522
0.00193535
0.00193548
0.0019356
0.00193573
0.00193586
0.00193599
0.00193611
0.00193624
0.00193636
0.00193649
0.00193662
0.00193674
0.00193686
0.00193699
0.00193711
0.00193724
0.00193736
0.00193748
0.0019376
0.00193772
0.00193785
0.00193797
0.00193809
0.00193821
0.00193833
0.00193845
0.00193856
0.00193868
0.0019388
0.00193892
0.00193904
0.00193915
0.00193927
0.00193938
0.0019395
0.00193961
0.00193973
0.00193984
0.00193996
0.00194007
0.00194018
0.00194029
0.00194041
0.00194052
0.00194063
0.00194074
0.00194085
0.00194096
0.00194107
0.00194118
0.00194128
0.00194139
0.0019415
0.00194161
0.00194171
0.00194182
0.00194192
0.00194203
0.00194213
0.00194224
0.00194234
0.00194244
0.00194255
0.00194265
0.00194275
0.00194285
0.00194295
0.00194305
0.00194315
0.00194325
0.00194335
0.00194345
0.00194355
0.00194364
0.00194374
0.00194384
0.00194393
0.00194403
0.00194413
0.00194422
0.00194431
0.00194441
0.0019445
0.00194459
0.00194469
0.00194478
0.00194487
0.00194496
0.00194505
0.00194514
0.00194523
0.00194532
0.00194541
0.0019455
0.00194558
0.00194567
0.00194576
0.00194584
0.00194593
0.00194602
0.0019461
0.00194619
0.00194627
0.00194635
0.00194644
0.00194652
0.0019466
0.00194668
0.00194676
0.00194684
0.00194692
0.001947
0.00194708
0.00194716
0.00194724
0.00194732
0.0019474
0.00194747
0.00194755
0.00194763
0.0019477
0.00194778
0.00194785
0.00194793
0.001948
0.00194808
0.00194815
0.00194822
0.00194829
0.00194837
0.00194844
0.00194851
0.00194858
0.00194865
0.00194872
0.00194879
0.00194886
0.00194892
0.00194899
0.00194906
0.00194913
0.00194919
0.00194926
0.00194933
0.00194939
0.00194946
0.00194952
0.00194958
0.00194965
0.00194971
0.00194977
0.00194984
0.0019499
0.00194996
0.00195002
0.00195008
0.00195014
0.0019502
0.00195026
0.00195032
0.00195038
0.00195044
0.0019505
0.00195056
0.00195061
0.00195067
0.00195073
0.00195078
0.00195084
0.00195089
0.00195095
0.001951
0.00195106
0.00195111
0.00195117
0.00195122
0.00195127
0.00195132
0.00195138
0.00195143
0.00195148
0.00195153
0.00195158
0.00195163
0.00195168
0.00195173
0.00195178
0.00195183
0.00195188
0.00195193
0.00195197
0.00195202
0.00195207
0.00195212
0.00195216
0.00195221
0.00195225
0.0019523
0.00195234
0.00195239
0.00195243
0.00195248
0.00195252
0.00195256
0.00195261
0.00195265
0.00195269
0.00195273
0.00195278
0.00195282
0.00195286
0.0019529
0.00195294
0.00195298
0.00195302
0.00195306
0.0019531
0.00195314
0.00195318
0.00195322
0.00195325
0.00195329
0.00195333
0.00195337
0.0019534
0.00195344
0.00195348
0.00195351
0.00195355
0.00195359
0.00195362
0.00195366
0.00195369
0.00195372
0.00195376
0.00195379
0.00195383
0.00195386
0.00195389
0.00195393
0.00195396
0.00195399
0.00195402
0.00195405
0.00195409
0.00195412
0.00195415
0.00195418
0.00195421
0.00195424
0.00195427
0.0019543
0.00195433
0.00195436
0.00195439
0.00195442
0.00195444
0.00195447
0.0019545
0.00195453
0.00195456
0.00195458
0.00195461
0.00195464
0.00195466
0.00195469
0.00195472
0.00195474
0.00195477
0.00195479
0.00195482
0.00195485
0.00195487
0.0019549
0.00195492
0.00195494
0.00195497
0.00195499
0.00195502
0.00195504
0.00195506
0.00195509
0.00195511
0.00195513
0.00195515
0.00195518
0.0019552
0.00195522
0.00195524
0.00195526
0.00195528
0.00195531
0.00195533
0.00195535
0.00195537
0.00195539
0.00195541
0.00195543
0.00195545
0.00195547
0.00195549
0.00195551
0.00195553
0.00195554
0.00195556
0.00195558
0.0019556
0.00195562
0.00195564
0.00195565
0.00195567
0.00195569
0.00195571
0.00195573
0.00195574
0.00195576
0.00195578
0.00195579
0.00195581
0.00195583
0.00195584
0.00195586
0.00195587
0.00195589
0.00195591
0.00195592
0.00195594
0.00195595
0.00195597
0.00195598
0.001956
0.00195601
0.00195603
0.00195604
0.00195605
0.00195607
0.00195608
0.0019561
0.00195611
0.00195612
0.00195614
0.00195615
0.00195616
0.00195618
0.00195619
0.0019562
0.00195621
0.00195623
0.00195624
0.00195625
0.00195626
0.00195628
0.00195629
0.0019563
0.00195631
0.00195632
0.00195634
0.00195635
0.00195636
0.00195637
0.00195638
0.00195639
0.0019564
0.00195641
0.00195642
0.00195643
0.00195644
0.00195645
0.00195646
0.00195648
0.00195649
0.00195649
0.0019565
0.00195651
0.00195652
0.00195653
0.00195654
0.00195655
0.00195656
0.00195657
0.00195658
0.00195659
0.0019566
0.00195661
0.00195662
0.00195662
0.00195663
0.00195664
0.00195665
0.00195666
0.00195667
0.00195667
0.00195668
0.00195669
0.0019567
0.00195671
0.00195671
0.00195672
0.00195673
0.00195674
0.00195674
0.00195675
0.00195676
0.00195677
0.00195677
0.00195678
0.00195679
0.00195679
0.0019568
0.00195681
0.00195681
0.00195682
0.00195683
0.00195683
0.00195684
0.00195685
0.00195685
0.00195686
0.00195686
0.00195687
0.00195688
0.00195688
0.00195689
0.00195689
0.0019569
0.00195691
0.00195691
0.00195692
0.00195692
0.00195693
0.00195693
0.00195694
0.00195694
0.00195695
0.00195695
0.00195696
0.00195696
0.00195697
0.00195697
0.00195698
0.00195698
0.00195699
0.00195699
0.001957
0.001957
0.00195701
0.00195701
0.00195702
0.00195702
0.00195702
0.00195703
0.00195703
0.00195704
0.00195704
0.00195705
0.00195705
0.00195705
0.00195706
0.00195706
0.00195707
0.00195707
0.00195707
0.00195708
0.00195708
0.00195708
0.00195709
0.00195709
0.0019571
0.0019571
0.0019571
0.00195711
0.00195711
0.00195711
0.00195712
0.00195712
0.00195712
0.00195713
0.00195713
0.00195713
0.00195714
0.00195714
0.00195714
0.00195714
0.00195715
0.00195715
0.00195715
0.00195716
0.00195716
0.00195716
0.00195717
0.00195717
0.00195717
0.00195717
0.00195718
0.00195718
0.00195718
0.00195718
0.00195719
0.00195719
0.00195719
0.00195719
0.0019572
0.0019572
0.0019572
0.0019572
0.00195721
0.00195721
0.00195721
0.00195721
0.00195721
0.00195722
0.00195722
0.00195722
0.00195722
0.00195723
0.00195723
0.00195723
0.00195723
0.00195723
0.00195724
0.00195724
0.00195724
0.00195724
0.00195724
0.00195724
0.00195725
0.00195725
0.00195725
0.00195725
0.00195725
0.00195726
0.00195726
0.00195726
0.00195726
0.00195726
0.00195726
0.00195727
0.00195727
0.00195727
0.00195727
0.00195727
0.00195727
0.00195727
0.00195728
0.00195728
0.00195728
0.00195728
0.00195728
0.00195728
0.00195728
0.00195729
0.00195729
0.00195729
0.00195729
0.00195729
0.00195729
0.00195729
0.0019573
0.0019573
0.0019573
0.0019573
0.0019573
0.0019573
0.0019573
0.0019573
0.0019573
0.00195731
0.00195731
0.00195731
0.00195731
0.00195731
0.00195731
0.00195731
0.00195731
0.00195731
0.00195731
0.00195732
0.00195732
0.00195732
0.00195732
0.00195732
0.00195732
0.00195732
0.00195732
0.00195732
0.00195732
0.00195733
0.00195733
0.00195733
0.00195733
0.00195733
0.00195733
0.00195733
0.00195733
0.00195733
0.00195733
0.00195733
0.00195733
0.00195733
0.00195734
0.00195734
0.00195734
0.00195734
0.00195734
0.00195734
0.00195734
0.00195734
0.00195734
0.00195734
0.00195734
0.00195734
0.00195734
0.00195734
0.00195734
0.00195735
0.00195735
0.00195735
0.00195735
0.00195735
0.00195735
0.00195735
0.00195735
0.00195735
0.00195735
0.00195735
0.00195735
0.00195735
0.00195735
0.00195735
0.00195735
0.00195735
0.00195735
0.00195736
0.00195736
0.00195736
0.00195736
0.00195736
0.00195736
0.00195736
0.00195736
0.00195736
0.00195736
0.00195736
0.00195736
0.00195736
0.00195736
0.00195736
0.00195736
0.00195736
0.00195736
0.00195736
0.00195736
0.00195736
0.00195736
0.00195736
0.00195736
0.00195736
0.00195737
0.00195737
0.00195737
0.00195737
0.00195737
0.00195737
0.00195737
0.00195737
0.00195737
0.00195737
0.00195737
0.00195737
0.00195737
0.00195737
0.00195737
0.00195737
0.00195737
0.00195737
0.00195737
0.00195737
0.00195737
0.00195737
0.00195737
0.00195737
0.00195737
0.00195737
0.00195737
0.00195737
0.00195737
0.00195737
0.00195737
0.00195737
0.00195737
0.00195737
0.00195737
0.00195737
0.00195737
0.00195738
0.00195738
0.00195738
0.00195738
0.00195738
0.00195738
0.00195738
0.00195738
0.00195738
0.00195738
0.00195738
0.00195738
0.00195738
0.00195738
0.00195738
0.00195738
0.00195738
0.00195738
0.00195738
0.00195738
0.00195738
0.00195738
0.00195738
0.00195738
0.00195738
0.00195738
0.00195738
0.00195738
0.00195738
0.00195738
0.00195738
0.00195738
0.00195738
0.00195738
0.00195738
0.00195738
0.00195738
0.00195738
0.00195738
0.00195738
0.00195738
0.00195738
0.00195738
0.00195738
0.00195738
0.00195738
0.00195738
0.00195738
0.00195738
0.00195738
0.00195738
0.00195738
0.00195738
0.00195738
0.00195738
0.00195738
0.00195738
0.00195738
0.00195738
0.00195738
0.00195738
0.00195738
0.00195738
0.00195738
0.00195738
0.00195738
0.00195738
0.00195738
0.00195738
0.00195738
0.00195738
0.00195738
0.00195738
0.00195738
0.00195738
0.00195738
0.00195738
0.00195738
0.00195739
0.00195739
0.00195739
0.00195739
0.00195739
0.00195739
0.00195739
0.00195739
0.00195739
0.00195739
0.00195739
0.00195739
0.00195739
0.00195739
0.00195739
0.00195739
0.00195739
0.00195739
0.00195739
0.00195739
0.00195739
0.00195739
0.00195739
0.00195739
0.00195739
0.00195739
0.00195739
0.00195739
0.00195739
0.00195739
0.00195739
0.00195739
0.00195739
0.00195739
0.00195739
0.00195739
0.00195739
0.00195739
0.00195739
0.00195739
0.00195739
0.00195739
0.00195739
0.00195739
0.00195739
0.00195739
0.00195739
0.00195739
0.00195739
0.00195739
0.00195739
0.00195739
0.00195739
0.00195739
0.00195739
0.00195739
0.00195739
0.00195739
0.00195739
0.00195739
0.00195739
0.00195739
0.00195739
0.00195739
0.00195739
0.00195739
0.00195739
0.00195739
0.00195739
0.00195739
0.00195739
0.00195739
0.00195739
0.00195739
0.00195739
0.00195739
0.00195739
0.00195739
0.00195739
0.00195739
0.00195739
0.00195739
0.00195739
0.00195739
0.00195739
0.00195739
0.00195739
0.00195739
0.00195739
0.00195739
0.00195739
0.00195739
0.00195739
0.00195739
0.00195739
0.00195739
0.00195739
0.00195739
0.00195739
0.00195739
0.00195739
0.00195739
0.00195739
0.00195739
0.00195739
0.00195739
0.00195739
0.00195739
0.00195739
0.00195739
0.00195739
0.00195739
0.00195739
0.00195739
0.00195739
0.00195739
0.00195739
0.00195739
0.00195739
0.00195739
0.00195739
0.00195739
0.00195739
0.00195739
0.00195739
0.00195739
0.00195739
0.00195739
0.00195739
0.00195739
0.00195739
0.00195739
0.00195739
0.00195739
0.00195739
0.00195739
0.00195739
0.00195739
0.00195739
0.00195739
0.00195739
0.00195739
0.00195739
0.00195739
0.00195739
0.00195739
0.00195739
0.00195739
0.00195739
0.00195739
0.00195739
0.00195739
0.00195739
0.00195739
0.00195739
0.00195739
0.00195739
0.00195739
0.00195739
0.00195739
0.00195739
0.00195739
0.00195739
0.00195739
0.00195739
0.00195739
0.00195739
0.00195739
0.00195739
0.00195739
0.00195739
0.00195739
0.00195739
0.00195739
0.00195739
0.00195739
0.00195739
0.00195739
0.00195739
0.00195739
0.00195739
0.00195739
0.00195739
0.00195739
0.00195739
0.00195739
0.00195739
0.00195739
0.00195739
0.00195739
0.00195739
0.00195739
0.00195739
0.00195739
0.00195739
0.00195739
0.00195739
0.00195739
0.00195739
0.00195739
0.00195739
0.00195739
0.00195739
0.00195739
0.00195739
0.00195739
0.00195739
0.00195739
0.00195739
0.00195739
0.00195739
0.00195739
0.00195739
0.00195739
0.00195739
0.00195739
0.00195739
0.00195739
0.00195739
0.00195739
0.00195739
0.00195739
0.00195739
0.00195739
0.00195739
0.00195739
0.00195739
0.00195739
0.00195739
0.00195739
0.00195739
0.00195739
0.00195739
0.00195739
0.00195739
0.00195739
0.00195739
0.00195739
0.00195739
0.00195739
0.00195739
0.00195739
0.00195739
0.00195739
0.00195739
0.00195739
0.00195739
0.00195739
0.00195739
0.00195739
0.00195739
0.00195739
0.00195739
0.00195739
0.00195739
0.00195739
0.00195739
0.00195739
0.00195739
0.00195739
0.00195739
0.00195739
0.00195739
0.00195739
0.00195739
0.00195739
0.00195739
0.00195739
0.00195739
0.00195739
0.00195739
0.00195739
0.00195739
0.00195739
0.00195739
0.00195739
0.00195739
0.00195739
0.00195739
0.00195739
0.00195739
0.00195739
0.00195739
0.00195739
0.00195739
0.00195739
0.00195739
0.00195739
0.00195739
0.00195739
0.00195739
0.00195739
0.00195739
0.00195739
0.00195739
0.00195739
0.00195739
0.00195739
0.00195739
0.00195739
0.00195739
0.00195739
0.00195739
0.00195739
0.00195739
0.00195739
0.00195739
0.00195739
0.00195739
0.00195739
0.00195739
0.00195739
0.00195739
0.00195739
0.00195739
0.00195739
0.00195739
0.00195739
0.00195739
0.00195739
0.00195739
0.00195739
0.00195739
0.00195739
0.00195739
0.00195739
0.00195739
0.00195739
0.00195739
0.00195739
0.00195739
0.00195739
0.00195739
0.00195739
0.00195739
0.00195739
0.00195739
0.00195739
0.00195739
0.00195739
0.00195739
0.00195739
0.00195739
0.00195739
0.00195739
0.00195739
0.00195739
0.00195739
0.00195739
0.00195739
0.00195739
0.00195739
0.00195739
0.00195739
0.00195739
0.00195739
0.00195739
0.00195739
0.00195739
0.00195739
0.00195739
0.00195739
0.00195739
0.00195739
0.00195739
0.00195739
0.00195739
0.00195739
0.00195739
0.00195739
0.00195739
0.00195739
0.00195739
0.00195739
0.00195739
0.00195739
0.00195739
0.00195739
0.00195739
0.00195739
0.00195739
0.00195739
0.00195739
0.00195739
0.00195739
0.00195739
0.00195739
0.00195739
0.00195739
0.00195739
0.00195739
0.00195739
0.00195739
0.00195739
0.00195739
0.00195739
0.00195739
0.00195739
0.00195739
0.00195739
0.00195739
0.00195739
0.00195739
0.00195739
0.00195739
0.00195739
0.00195739
0.00195739
0.00195739
0.00195739
0.00195739
0.00195739
0.00195739
0.00195739
0.00195739
0.00195739
0.00195739
0.00195739
0.00195739
0.00195739
0.00195739
0.00195739
0.00195739
0.00195739
0.00195739
0.00195739
0.00195739
0.00195739
0.00195739
0.00195739
0.00195739
0.00195739
0.00195739
0.00195739
0.00195739
0.00195739
0.00195739
0.00195739
0.00195739
0.00195739
0.00195739
0.00195739
0.00195739
0.00195739
0.00195739
0.00195739
0.00195739
0.00195739
0.00195739
0.00195739
0.00195739
0.00195739
0.00195739
0.00195739
0.00195739
0.00195739
0.00195739
0.00195739
0.00195739
0.00195739
0.00195739
0.00195739
0.00195739
0.00195739
0.00195739
0.00195739
0.00195739
0.00195739
0.00195739
0.00195739
0.00195739
0.00195739
0.00195739
0.00195739
0.00195739
0.00195739
0.00195739
0.00195739
0.00195739
0.00195739
0.00195739
0.00195739
0.00195739
0.00195739
0.00195739
0.00195739
0.00195739
0.00195739
0.00195739
0.00195739
0.00195739
0.00195739
0.00195739
0.00195739
0.00195739
0.00195739
0.00195739
0.00195739
0.00195739
0.00195739
0.00195739
0.00195739
0.00195739
0.00195739
0.00195739
0.00195739
0.00195739
0.00195739
0.00195739
0.00195739
0.00195739
0.00195739
0.00195739
0.00195739
0.00195739
0.00195739
0.00195739
0.00195739
0.00195739
0.00195739
0.00195739
0.00195739
0.00195739
0.00195739
0.00195739
0.00195739
0.00195739
0.00195739
0.00195739
0.00195739
0.00195739
0.00195739
0.00195739
0.00195739
0.00195739
0.00195739
0.00195739
0.00195739
0.00195739
0.00195739
0.00195739
0.00195739
0.00195739
0.00195739
0.00195739
0.00195739
0.00195739
0.00195739
0.00195739
0.00195739
0.00195739
0.00195739
0.00195739
0.00195739
0.00195739
0.00195739
0.00195739
0.00195739
0.00195739
0.00195739
0.00195739
0.00195739
0.00195739
0.00195739
0.00195739
0.00195739
0.00195739
0.00195739
0.00195739
0.00195739
0.00195739
0.00195739
0.00195739
0.00195739
0.00195739
0.00195739
0.00195739
0.00195739
0.00195739
0.00195739
0.00195739
0.00195739
0.00195739
0.00195739
0.00195739
0.00195739
0.00195739
0.00195739
0.00195739
0.00195739
0.00195739
0.00195739
0.00195739
0.00195739
0.00195739
0.00195739
0.00195739
0.00195739
0.00195739
0.00195739
0.00195739
0.00195739
0.00195739
0.00195739
0.00195739
0.00195739
0.00195739
0.00195739
0.00195739
0.00195739
0.00195739
0.00195739
0.00195739
0.00195739
0.00195739
0.00195739
0.00195739
0.00195739
0.00195739
0.00195739
0.00195739
0.00195739
0.00195739
0.00195739
0.00195739
0.00195739
0.00195739
0.00195739
0.00195739
0.00195739
0.00195739
0.00195739
0.00195739
0.00195739
0.00195739
0.00195739
0.00195739
0.00195739
0.00195739
0.00195739
0.00195739
0.00195739
0.00195739
0.00195739
0.00195739
0.00195739
0.00195739
0.00195739
0.00195739
0.00195739
0.00195739
0.00195739
0.00195739
0.00195739
0.00195739
0.00195739
0.00195739
0.00195739
0.00195739
0.00195739
0.00195739
0.00195739
0.00195739
0.00195739
0.00195739
0.00195739
0.00195739
0.00195739
0.00195739
0.00195739
0.00195739
0.00195739
0.00195739
0.00195739
0.00195739
0.00195739
0.00195739
0.00195739
0.00195739
0.00195739
0.00195739
0.00195739
0.00195739
0.00195739
0.00195739
0.00195739
0.00195739
0.00195739
0.00195739
0.00195739
0.00195739
0.00195739
0.00195739
0.00195739
0.00195739
0.00195739
0.00195739
0.00195739
0.00195739
0.00195739
0.00195739
0.00195739
0.00195739
0.00195739
0.00195739
0.00195739
0.00195739
0.00195739
0.00195739
0.00195739
0.00195739
0.00195739
0.00195739
0.00195739
0.00195739
0.00195739
0.00195739
0.00195739
0.00195739
0.00195739
0.00195739
0.00195739
0.00195739
0.00195739
0.00195739
0.00195739
0.00195739
0.00195739
0.00195739
0.00195739
0.00195739
0.00195739
0.00195739
0.00195739
0.00195739
0.00195739
0.00195739
0.00195739
0.00195739
0.00195739
0.00195739
0.00195739
0.00195739
0.00195739
0.00195739
0.00195739
0.00195739
0.00195739
0.00195739
0.00195739
0.00195739
0.00195739
0.00195739
0.00195739
0.00195739
0.00195739
0.00195739
0.00195739
0.00195739
0.00195739
0.00195739
0.00195739
0.00195739
0.00195739
0.00195739
0.00195739
0.00195739
0.00195739
0.00195739
0.00195739
0.00195739
0.00195739
0.00195739
0.00195739
0.00195739
0.00195739
0.00195739
0.00195739
0.00195739
0.00195739
0.00195739
0.00195739
0.00195739
0.00195739
0.00195739
0.00195739
0.00195739
0.00195739
0.00195739
0.00195739
0.00195739
0.00195739
0.00195739
0.00195739
0.00195739
0.00195739
0.00195739
0.00195739
0.00195739
0.00195739
0.00195739
0.00195739
0.00195739
0.00195739
0.00195739
0.00195739
0.00195739
0.00195739
0.00195739
0.00195739
0.00195739
0.00195739
0.00195739
0.00195739
0.00195739
0.00195739
0.00195739
0.00195739
0.00195739
0.00195739
0.00195739
0.00195739
0.00195739
0.00195739
0.00195739
0.00195739
0.00195739
0.00195739
0.00195739
0.00195739
0.00195739
0.00195739
0.00195739
0.00195739
0.00195739
0.00195739
0.00195739
0.00195739
0.00195739
0.00195739
0.00195739
0.00195739
0.00195739
0.00195739
0.00195739
0.00195739
0.00195739
0.00195739
0.00195739
0.00195739
0.00195739
0.00195738
0.00195738
0.00195738
0.00195738
0.00195738
0.00195738
0.00195738
0.00195738
0.00195738
0.00195738
0.00195738
0.00195738
0.00195738
0.00195738
0.00195738
0.00195738
0.00195738
0.00195738
0.00195738
0.00195738
0.00195738
0.00195738
0.00195738
0.00195738
0.00195738
0.00195738
0.00195738
0.00195738
0.00195738
0.00195738
0.00195738
0.00195738
0.00195738
0.00195738
0.00195738
0.00195738
0.00195738
0.00195738
0.00195738
0.00195738
0.00195738
0.00195738
0.00195738
0.00195738
0.00195738
0.00195738
0.00195738
0.00195738
0.00195738
0.00195738
0.00195738
0.00195738
0.00195738
0.00195738
0.00195738
0.00195738
0.00195738
0.00195738
0.00195738
0.00195738
0.00195738
0.00195738
0.00195738
0.00195737
0.00195737
0.00195737
0.00195737
0.00195737
0.00195737
0.00195737
0.00195737
0.00195737
0.00195737
0.00195737
0.00195737
0.00195737
0.00195737
0.00195737
0.00195737
0.00195737
0.00195737
0.00195737
0.00195737
0.00195737
0.00195737
0.00195737
0.00195737
0.00195737
0.00195737
0.00195737
0.00195737
0.00195737
0.00195737
0.00195737
0.00195737
0.00195737
0.00195736
0.00195736
0.00195736
0.00195736
0.00195736
0.00195736
0.00195736
0.00195736
0.00195736
0.00195736
0.00195736
0.00195736
0.00195736
0.00195736
0.00195736
0.00195736
0.00195736
0.00195736
0.00195736
0.00195736
0.00195736
0.00195736
0.00195736
0.00195735
0.00195735
0.00195735
0.00195735
0.00195735
0.00195735
0.00195735
0.00195735
0.00195735
0.00195735
0.00195735
0.00195735
0.00195735
0.00195735
0.00195735
0.00195735
0.00195735
0.00195734
0.00195734
0.00195734
0.00195734
0.00195734
0.00195734
0.00195734
0.00195734
0.00195734
0.00195734
0.00195734
0.00195734
0.00195734
0.00195734
0.00195734
0.00195733
0.00195733
0.00195733
0.00195733
0.00195733
0.00195733
0.00195733
0.00195733
0.00195733
0.00195733
0.00195733
0.00195733
0.00195732
0.00195732
0.00195732
0.00195732
0.00195732
0.00195732
0.00195732
0.00195732
0.00195732
0.00195732
0.00195731
0.00195731
0.00195731
0.00195731
0.00195731
0.00195731
0.00195731
0.00195731
0.00195731
0.00195731
0.0019573
0.0019573
0.0019573
0.0019573
0.0019573
0.0019573
0.0019573
0.0019573
0.00195729
0.00195729
0.00195729
0.00195729
0.00195729
0.00195729
0.00195729
0.00195728
0.00195728
0.00195728
0.00195728
0.00195728
0.00195728
0.00195728
0.00195727
0.00195727
0.00195727
0.00195727