/*--------------------------------*- C++ -*----------------------------------*\
| =========                 |                                                 |
| \\      /  F ield         | OpenFOAM: The Open Source CFD Toolbox           |
|  \\    /   O peration     | Version:  2312                                  |
|   \\  /    A nd           | Website:  www.openfoam.com                      |
|    \\/     M anipulation  |                                                 |
\*---------------------------------------------------------------------------*/
FoamFile
{
    version     2.0;
    format      ascii;
    arch        "LSB;label=32;scalar=64";
    class       surfaceScalarField;
    location    "38.405";
    object      phi;
}
// * * * * * * * * * * * * * * * * * * * * * * * * * * * * * * * * * * * * * //

dimensions      [0 3 -1 0 0 0 0];

oriented        oriented;

internalField   nonuniform List<scalar> 
3999
(
1.43398e-19
1.43347e-19
1.43353e-19
1.43561e-19
1.43539e-19
1.43844e-19
1.44364e-19
1.43939e-19
1.47715e-19
1.47752e-19
1.44128e-19
1.43991e-19
1.41132e-19
1.40031e-19
1.37877e-19
1.37831e-19
1.37475e-19
1.37212e-19
1.37092e-19
1.37016e-19
1.36971e-19
1.3695e-19
1.36947e-19
1.3696e-19
1.36986e-19
1.36936e-19
1.37104e-19
1.36516e-19
1.36161e-19
1.35752e-19
1.35284e-19
1.35039e-19
1.34033e-19
1.33261e-19
1.32445e-19
1.31666e-19
1.3092e-19
1.30205e-19
1.29518e-19
1.28858e-19
1.28223e-19
1.27611e-19
1.27021e-19
1.26451e-19
1.25901e-19
1.25368e-19
1.24852e-19
1.24353e-19
1.23868e-19
1.23398e-19
1.22942e-19
1.22498e-19
1.22067e-19
1.21649e-19
1.21241e-19
1.20844e-19
1.20457e-19
1.2008e-19
1.19713e-19
1.19354e-19
1.19004e-19
1.18662e-19
1.18328e-19
1.18001e-19
1.1768e-19
1.17366e-19
1.17058e-19
1.16755e-19
1.16458e-19
1.16165e-19
1.15876e-19
1.15591e-19
1.15309e-19
1.1503e-19
1.14754e-19
1.14479e-19
1.14206e-19
1.13934e-19
1.13662e-19
1.13391e-19
1.13119e-19
1.12846e-19
1.12572e-19
1.12296e-19
1.12017e-19
1.11736e-19
1.11452e-19
1.11165e-19
1.10874e-19
1.10578e-19
1.10279e-19
1.09975e-19
1.09666e-19
1.09352e-19
1.09034e-19
1.0871e-19
1.08382e-19
1.08049e-19
1.0771e-19
1.07368e-19
1.07021e-19
1.0667e-19
1.06315e-19
1.05956e-19
1.05595e-19
1.05232e-19
1.04867e-19
1.045e-19
1.04134e-19
1.03767e-19
1.03402e-19
1.03039e-19
1.02678e-19
1.02321e-19
1.01968e-19
1.0162e-19
1.01277e-19
1.00941e-19
1.00612e-19
1.00289e-19
9.99717e-20
9.96593e-20
9.93498e-20
9.90412e-20
9.87304e-20
9.84137e-20
9.80856e-20
9.77395e-20
9.73662e-20
9.69579e-20
9.65041e-20
9.59916e-20
9.54081e-20
9.47394e-20
9.39733e-20
9.3105e-20
9.21374e-20
9.12299e-20
9.01152e-20
8.83084e-20
8.85039e-20
8.67042e-20
8.55992e-20
8.47239e-20
8.38113e-20
8.302e-20
8.23528e-20
8.18023e-20
8.13572e-20
8.1005e-20
8.07319e-20
8.05268e-20
8.03805e-20
8.02833e-20
8.02268e-20
8.02042e-20
8.02085e-20
8.02323e-20
8.02672e-20
8.03059e-20
8.03384e-20
8.0349e-20
8.03208e-20
8.02358e-20
8.00741e-20
7.98151e-20
7.9438e-20
7.89242e-20
7.80317e-20
7.706e-20
7.61535e-20
7.74672e-20
7.66199e-20
7.57682e-20
7.50361e-20
7.4721e-20
7.45819e-20
7.45982e-20
7.47501e-20
7.50184e-20
7.53854e-20
7.58358e-20
7.63563e-20
7.69355e-20
7.75652e-20
7.82405e-20
7.89587e-20
7.97187e-20
8.05178e-20
8.13541e-20
8.22278e-20
8.31388e-20
8.4086e-20
8.50678e-20
8.60811e-20
8.71246e-20
8.81961e-20
8.92906e-20
9.04037e-20
9.15306e-20
9.25931e-20
9.35043e-20
9.56595e-20
8.82917e-20
9.04433e-20
9.13536e-20
9.24054e-20
9.35117e-20
9.4596e-20
9.56529e-20
9.66768e-20
9.76642e-20
9.86119e-20
9.95171e-20
1.00378e-19
1.01192e-19
1.01958e-19
1.02675e-19
1.03342e-19
1.03963e-19
1.04539e-19
1.0507e-19
1.05558e-19
1.06006e-19
1.06418e-19
1.06795e-19
1.07139e-19
1.07452e-19
1.07738e-19
1.07999e-19
1.08239e-19
1.08458e-19
1.08657e-19
1.08837e-19
1.09e-19
1.0915e-19
1.09287e-19
1.09412e-19
1.09528e-19
1.09634e-19
1.09733e-19
1.09824e-19
1.09909e-19
1.09987e-19
1.10057e-19
1.10121e-19
1.10179e-19
1.10231e-19
1.1028e-19
1.10325e-19
1.10367e-19
1.10408e-19
1.10446e-19
1.10484e-19
1.10521e-19
1.10558e-19
1.10595e-19
1.10632e-19
1.10671e-19
1.1071e-19
1.10751e-19
1.10794e-19
1.10838e-19
1.10885e-19
1.10934e-19
1.10985e-19
1.11038e-19
1.11094e-19
1.11153e-19
1.11214e-19
1.11278e-19
1.11345e-19
1.11415e-19
1.11488e-19
1.11563e-19
1.11642e-19
1.11723e-19
1.11808e-19
1.11895e-19
1.11985e-19
1.12078e-19
1.12173e-19
1.12272e-19
1.12373e-19
1.12477e-19
1.12583e-19
1.12693e-19
1.12805e-19
1.12919e-19
1.13036e-19
1.13155e-19
1.13277e-19
1.13401e-19
1.13527e-19
1.13656e-19
1.13787e-19
1.1392e-19
1.14055e-19
1.14192e-19
1.14331e-19
1.14472e-19
1.14615e-19
1.1476e-19
1.14906e-19
1.15055e-19
1.15205e-19
1.15356e-19
1.1551e-19
1.15665e-19
1.15821e-19
1.15979e-19
1.16138e-19
1.16298e-19
1.1646e-19
1.16623e-19
1.16788e-19
1.16953e-19
1.1712e-19
1.17288e-19
1.17457e-19
1.17626e-19
1.17797e-19
1.17969e-19
1.18142e-19
1.18316e-19
1.18491e-19
1.18666e-19
1.18842e-19
1.1902e-19
1.19197e-19
1.19376e-19
1.19555e-19
1.19735e-19
1.19916e-19
1.20097e-19
1.20279e-19
1.20461e-19
1.20644e-19
1.20827e-19
1.21011e-19
1.21195e-19
1.2138e-19
1.21565e-19
1.21751e-19
1.21937e-19
1.22123e-19
1.2231e-19
1.22497e-19
1.22685e-19
1.22873e-19
1.23061e-19
1.23249e-19
1.23438e-19
1.23626e-19
1.23815e-19
1.24005e-19
1.24194e-19
1.24384e-19
1.24574e-19
1.24764e-19
1.24954e-19
1.25144e-19
1.25335e-19
1.25525e-19
1.25716e-19
1.25907e-19
1.26097e-19
1.26288e-19
1.26479e-19
1.2667e-19
1.26862e-19
1.27053e-19
1.27244e-19
1.27435e-19
1.27626e-19
1.27818e-19
1.28009e-19
1.282e-19
1.28392e-19
1.28583e-19
1.28774e-19
1.28965e-19
1.29157e-19
1.29348e-19
1.29539e-19
1.2973e-19
1.29921e-19
1.30112e-19
1.30303e-19
1.30494e-19
1.30684e-19
1.30875e-19
1.31066e-19
1.31256e-19
1.31447e-19
1.31637e-19
1.31827e-19
1.32018e-19
1.32208e-19
1.32398e-19
1.32588e-19
1.32778e-19
1.32967e-19
1.33157e-19
1.33346e-19
1.33536e-19
1.33725e-19
1.33914e-19
1.34103e-19
1.34292e-19
1.34481e-19
1.3467e-19
1.34859e-19
1.35047e-19
1.35236e-19
1.35424e-19
1.35612e-19
1.358e-19
1.35988e-19
1.36176e-19
1.36363e-19
1.36551e-19
1.36738e-19
1.36926e-19
1.37113e-19
1.373e-19
1.37487e-19
1.37674e-19
1.3786e-19
1.38047e-19
1.38233e-19
1.3842e-19
1.38606e-19
1.38792e-19
1.38978e-19
1.39164e-19
1.3935e-19
1.39535e-19
1.39721e-19
1.39906e-19
1.40091e-19
1.40277e-19
1.40462e-19
1.40646e-19
1.40831e-19
1.41016e-19
1.41201e-19
1.41385e-19
1.41569e-19
1.41754e-19
1.41938e-19
1.42122e-19
1.42306e-19
1.42489e-19
1.42673e-19
1.42857e-19
1.4304e-19
1.43224e-19
1.43407e-19
1.4359e-19
1.43773e-19
1.43956e-19
1.44139e-19
1.44322e-19
1.44504e-19
1.44687e-19
1.44869e-19
1.45052e-19
1.45234e-19
1.45416e-19
1.45598e-19
1.4578e-19
1.45962e-19
1.46144e-19
1.46326e-19
1.46508e-19
1.46689e-19
1.46871e-19
1.47052e-19
1.47233e-19
1.47415e-19
1.47596e-19
1.47777e-19
1.47958e-19
1.48139e-19
1.4832e-19
1.48501e-19
1.48681e-19
1.48862e-19
1.49043e-19
1.49223e-19
1.49403e-19
1.49584e-19
1.49764e-19
1.49944e-19
1.50125e-19
1.50305e-19
1.50485e-19
1.50665e-19
1.50845e-19
1.51024e-19
1.51204e-19
1.51384e-19
1.51564e-19
1.51743e-19
1.51923e-19
1.52102e-19
1.52282e-19
1.52461e-19
1.52641e-19
1.5282e-19
1.52999e-19
1.53178e-19
1.53358e-19
1.53537e-19
1.53716e-19
1.53895e-19
1.54074e-19
1.54253e-19
1.54432e-19
1.54611e-19
1.54789e-19
1.54968e-19
1.55147e-19
1.55326e-19
1.55504e-19
1.55683e-19
1.55862e-19
1.5604e-19
1.56219e-19
1.56397e-19
1.56576e-19
1.56755e-19
1.56933e-19
1.57111e-19
1.5729e-19
1.57468e-19
1.57647e-19
1.57825e-19
1.58003e-19
1.58182e-19
1.5836e-19
1.58538e-19
1.58717e-19
1.58895e-19
1.59073e-19
1.59252e-19
1.5943e-19
1.59608e-19
1.59786e-19
1.59965e-19
1.60143e-19
1.60321e-19
1.60499e-19
1.60678e-19
1.60856e-19
1.61034e-19
1.61212e-19
1.6139e-19
1.61569e-19
1.61747e-19
1.61925e-19
1.62103e-19
1.62282e-19
1.6246e-19
1.62638e-19
1.62817e-19
1.62995e-19
1.63173e-19
1.63352e-19
1.6353e-19
1.63708e-19
1.63887e-19
1.64065e-19
1.64243e-19
1.64422e-19
1.646e-19
1.64779e-19
1.64957e-19
1.65136e-19
1.65315e-19
1.65493e-19
1.65672e-19
1.6585e-19
1.66029e-19
1.66208e-19
1.66387e-19
1.66565e-19
1.66744e-19
1.66923e-19
1.67102e-19
1.67281e-19
1.6746e-19
1.67639e-19
1.67818e-19
1.67997e-19
1.68176e-19
1.68355e-19
1.68534e-19
1.68714e-19
1.68893e-19
1.69072e-19
1.69252e-19
1.69431e-19
1.69611e-19
1.6979e-19
1.6997e-19
1.70149e-19
1.70329e-19
1.70509e-19
1.70689e-19
1.70868e-19
1.71048e-19
1.71228e-19
1.71408e-19
1.71588e-19
1.71769e-19
1.71949e-19
1.72129e-19
1.72309e-19
1.7249e-19
1.7267e-19
1.7285e-19
1.73031e-19
1.73212e-19
1.73392e-19
1.73573e-19
1.73754e-19
1.73935e-19
1.74116e-19
1.74297e-19
1.74478e-19
1.74659e-19
1.7484e-19
1.75021e-19
1.75202e-19
1.75384e-19
1.75565e-19
1.75747e-19
1.75928e-19
1.7611e-19
1.76292e-19
1.76473e-19
1.76655e-19
1.76837e-19
1.77019e-19
1.77201e-19
1.77383e-19
1.77565e-19
1.77748e-19
1.7793e-19
1.78112e-19
1.78295e-19
1.78477e-19
1.7866e-19
1.78843e-19
1.79025e-19
1.79208e-19
1.79391e-19
1.79574e-19
1.79757e-19
1.7994e-19
1.80123e-19
1.80306e-19
1.8049e-19
1.80673e-19
1.80856e-19
1.8104e-19
1.81223e-19
1.81407e-19
1.8159e-19
1.81774e-19
1.81958e-19
1.82142e-19
1.82325e-19
1.82509e-19
1.82693e-19
1.82877e-19
1.83061e-19
1.83246e-19
1.8343e-19
1.83614e-19
1.83798e-19
1.83983e-19
1.84167e-19
1.84352e-19
1.84536e-19
1.84721e-19
1.84905e-19
1.8509e-19
1.85274e-19
1.85459e-19
1.85644e-19
1.85829e-19
1.86013e-19
1.86198e-19
1.86383e-19
1.86568e-19
1.86753e-19
1.86938e-19
1.87123e-19
1.87308e-19
1.87493e-19
1.87678e-19
1.87863e-19
1.88048e-19
1.88233e-19
1.88418e-19
1.88603e-19
1.88788e-19
1.88973e-19
1.89158e-19
1.89343e-19
1.89529e-19
1.89714e-19
1.89899e-19
1.90084e-19
1.90269e-19
1.90454e-19
1.90639e-19
1.90824e-19
1.91009e-19
1.91194e-19
1.91378e-19
1.91563e-19
1.91748e-19
1.91933e-19
1.92117e-19
1.92302e-19
1.92487e-19
1.92671e-19
1.92856e-19
1.9304e-19
1.93224e-19
1.93409e-19
1.93593e-19
1.93777e-19
1.93961e-19
1.94145e-19
1.94329e-19
1.94513e-19
1.94696e-19
1.9488e-19
1.95063e-19
1.95247e-19
1.9543e-19
1.95613e-19
1.95796e-19
1.95979e-19
1.96161e-19
1.96344e-19
1.96526e-19
1.96708e-19
1.9689e-19
1.97072e-19
1.97254e-19
1.97436e-19
1.97617e-19
1.97798e-19
1.97979e-19
1.9816e-19
1.98341e-19
1.98521e-19
1.98701e-19
1.98881e-19
1.99061e-19
1.99241e-19
1.9942e-19
1.99599e-19
1.99778e-19
1.99957e-19
2.00135e-19
2.00313e-19
2.00491e-19
2.00668e-19
2.00846e-19
2.01022e-19
2.01199e-19
2.01375e-19
2.01551e-19
2.01727e-19
2.01902e-19
2.02077e-19
2.02252e-19
2.02427e-19
2.02601e-19
2.02775e-19
2.02949e-19
2.03122e-19
2.03295e-19
2.03467e-19
2.0364e-19
2.03812e-19
2.03984e-19
2.04156e-19
2.04327e-19
2.04497e-19
2.04668e-19
2.04838e-19
2.05008e-19
2.05178e-19
2.05347e-19
2.05516e-19
2.05684e-19
2.05852e-19
2.0602e-19
2.06187e-19
2.06354e-19
2.06521e-19
2.06687e-19
2.06853e-19
2.07019e-19
2.07184e-19
2.07349e-19
2.07513e-19
2.07678e-19
2.07841e-19
2.08005e-19
2.08168e-19
2.08331e-19
2.08493e-19
2.08655e-19
2.08816e-19
2.08977e-19
2.09138e-19
2.09298e-19
2.09458e-19
2.09617e-19
2.09776e-19
2.09934e-19
2.10092e-19
2.1025e-19
2.10407e-19
2.10563e-19
2.10719e-19
2.10874e-19
2.11029e-19
2.11184e-19
2.11337e-19
2.11491e-19
2.11643e-19
2.11795e-19
2.11947e-19
2.12098e-19
2.12248e-19
2.12398e-19
2.12547e-19
2.12696e-19
2.12844e-19
2.12991e-19
2.13138e-19
2.13284e-19
2.13429e-19
2.13574e-19
2.13718e-19
2.13861e-19
2.14003e-19
2.14145e-19
2.14286e-19
2.14427e-19
2.14566e-19
2.14705e-19
2.14843e-19
2.14981e-19
2.15117e-19
2.15253e-19
2.15388e-19
2.15522e-19
2.15655e-19
2.15787e-19
2.15919e-19
2.1605e-19
2.1618e-19
2.16308e-19
2.16436e-19
2.16563e-19
2.1669e-19
2.16815e-19
2.16939e-19
2.17062e-19
2.17185e-19
2.17306e-19
2.17427e-19
2.17547e-19
2.17665e-19
2.17783e-19
2.179e-19
2.18015e-19
2.1813e-19
2.18244e-19
2.18356e-19
2.18467e-19
2.18578e-19
2.18687e-19
2.18795e-19
2.18902e-19
2.19008e-19
2.19112e-19
2.19216e-19
2.19318e-19
2.19419e-19
2.19519e-19
2.19617e-19
2.19714e-19
2.1981e-19
2.19904e-19
2.19997e-19
2.20088e-19
2.20178e-19
2.20267e-19
2.20354e-19
2.20439e-19
2.20522e-19
2.20604e-19
2.20684e-19
2.20763e-19
2.20839e-19
2.20914e-19
2.20987e-19
2.21058e-19
2.21126e-19
2.21193e-19
2.21257e-19
2.21319e-19
2.21378e-19
2.21435e-19
2.2149e-19
2.21542e-19
2.2159e-19
2.21636e-19
2.21679e-19
2.21719e-19
2.21755e-19
2.21788e-19
2.21817e-19
2.21842e-19
2.21862e-19
2.21879e-19
2.21891e-19
2.21898e-19
2.21899e-19
2.21895e-19
2.21886e-19
2.2187e-19
2.21848e-19
2.21818e-19
2.21782e-19
2.21738e-19
2.21685e-19
2.21623e-19
2.21553e-19
2.21472e-19
2.21381e-19
2.21278e-19
2.21164e-19
2.21037e-19
2.20897e-19
2.20743e-19
2.20573e-19
2.20388e-19
2.20187e-19
2.19968e-19
2.1973e-19
2.19473e-19
2.19196e-19
2.18898e-19
2.18577e-19
2.18234e-19
2.17868e-19
2.17476e-19
2.1706e-19
2.16618e-19
2.1615e-19
2.15656e-19
2.15136e-19
2.1459e-19
2.14018e-19
2.13421e-19
2.128e-19
2.12157e-19
2.11494e-19
2.10813e-19
2.10118e-19
2.0941e-19
2.08695e-19
2.07977e-19
2.07261e-19
2.06552e-19
2.05857e-19
2.05181e-19
2.04531e-19
2.03914e-19
2.03334e-19
2.02797e-19
2.02304e-19
2.01855e-19
2.01441e-19
2.01047e-19
2.0064e-19
2.00161e-19
1.99378e-19
1.98673e-19
1.97355e-19
2.0021e-19
1.98862e-19
1.98351e-19
1.98427e-19
1.96744e-19
1.96862e-19
1.96197e-19
1.95041e-19
1.89136e-19
1.87825e-19
1.86487e-19
1.8526e-19
1.80044e-19
1.79132e-19
1.7825e-19
1.77719e-19
1.80491e-19
1.80042e-19
1.7985e-19
1.79061e-19
1.87636e-19
1.86414e-19
1.85648e-19
1.84015e-19
1.85615e-19
1.84316e-19
1.83999e-19
1.84449e-19
1.76699e-19
1.77377e-19
1.77401e-19
1.77793e-19
1.74923e-19
1.744e-19
1.73529e-19
1.73549e-19
1.70207e-19
1.70067e-19
1.69478e-19
1.68357e-19
1.7025e-19
1.68875e-19
1.67888e-19
1.66973e-19
1.6386e-19
1.62832e-19
1.61589e-19
1.59922e-19
1.54233e-19
1.53319e-19
1.53217e-19
1.53262e-19
1.49823e-19
1.49936e-19
1.50383e-19
1.50908e-19
1.49304e-19
1.50259e-19
1.5109e-19
1.51248e-19
1.54468e-19
1.54969e-19
1.56209e-19
1.56941e-19
1.54138e-19
1.53865e-19
1.5379e-19
1.52621e-19
1.48708e-19
1.47547e-19
1.46674e-19
1.47098e-19
1.4415e-19
1.45432e-19
1.46316e-19
1.47086e-19
1.37645e-19
1.38478e-19
1.39829e-19
1.41415e-19
1.39919e-19
1.4091e-19
1.41356e-19
1.42209e-19
1.39426e-19
1.40248e-19
1.39901e-19
1.39529e-19
1.29394e-19
1.2843e-19
1.27843e-19
1.27486e-19
1.37276e-19
1.37499e-19
1.37364e-19
1.37884e-19
1.42257e-19
1.42558e-19
1.41995e-19
1.4123e-19
1.43499e-19
1.42596e-19
1.41584e-19
1.41479e-19
1.3225e-19
1.3261e-19
1.32364e-19
1.31602e-19
1.34042e-19
1.33819e-19
1.34222e-19
1.35102e-19
1.40151e-19
1.40819e-19
1.40676e-19
1.40112e-19
1.43205e-19
1.4348e-19
1.44314e-19
1.44661e-19
1.41847e-19
1.4285e-19
1.44911e-19
1.46728e-19
1.47926e-19
1.38679e-19
1.39743e-19
1.41655e-19
1.43169e-19
1.40786e-19
1.41568e-19
1.42685e-19
1.42974e-19
1.38975e-19
1.37746e-19
1.36541e-19
1.34103e-19
1.34246e-19
1.30904e-19
1.27722e-19
1.25411e-19
1.21416e-19
1.19645e-19
1.17933e-19
1.15876e-19
1.23735e-19
1.21864e-19
1.21196e-19
1.19877e-19
1.22576e-19
1.21847e-19
1.22329e-19
1.22916e-19
1.32782e-19
1.33604e-19
1.34702e-19
1.3509e-19
1.37747e-19
1.37511e-19
1.37321e-19
1.35815e-19
1.362e-19
1.34253e-19
1.33258e-19
1.31462e-19
1.32378e-19
1.30002e-19
1.28225e-19
1.26056e-19
1.20754e-19
1.19054e-19
1.17617e-19
1.16871e-19
1.25643e-19
1.25285e-19
1.24902e-19
1.24879e-19
1.34594e-19
1.35822e-19
1.37705e-19
1.39229e-19
1.30879e-19
1.32079e-19
1.33305e-19
1.33321e-19
1.41645e-19
1.41306e-19
1.41899e-19
1.43559e-19
1.43384e-19
1.45413e-19
1.47173e-19
1.49889e-19
1.50144e-19
1.52721e-19
1.54651e-19
1.56913e-19
1.55788e-19
1.5803e-19
1.61069e-19
1.6306e-19
1.61219e-19
1.62998e-19
1.64773e-19
1.65978e-19
1.56788e-19
1.5805e-19
1.59446e-19
1.59487e-19
1.62278e-19
1.61983e-19
1.61938e-19
1.62189e-19
1.59014e-19
1.59698e-19
1.60465e-19
1.61116e-19
1.5855e-19
1.5935e-19
1.60061e-19
1.60742e-19
1.57297e-19
1.57353e-19
1.5764e-19
1.5786e-19
1.54514e-19
1.54435e-19
1.53786e-19
1.53834e-19
1.51326e-19
1.51233e-19
1.49792e-19
1.48309e-19
1.42498e-19
1.40927e-19
1.39876e-19
1.38575e-19
1.40041e-19
1.39344e-19
1.38421e-19
1.37703e-19
1.4066e-19
1.39918e-19
1.38695e-19
1.3715e-19
1.31943e-19
1.31041e-19
1.31155e-19
1.31849e-19
1.32509e-19
1.23423e-19
1.24552e-19
1.25921e-19
1.26576e-19
1.16488e-19
1.17322e-19
1.19127e-19
1.21122e-19
1.13254e-19
1.15292e-19
1.17484e-19
1.18997e-19
1.23003e-19
1.24051e-19
1.25216e-19
1.25609e-19
1.28733e-19
1.28841e-19
1.30007e-19
1.30226e-19
1.33505e-19
1.33956e-19
1.34916e-19
1.35621e-19
1.38458e-19
1.38592e-19
1.38925e-19
1.39056e-19
1.36081e-19
1.35484e-19
1.35264e-19
1.34066e-19
1.4175e-19
1.40816e-19
1.40523e-19
1.39937e-19
1.48571e-19
1.48226e-19
1.48781e-19
1.48766e-19
1.52055e-19
1.52098e-19
1.52453e-19
1.53267e-19
1.57741e-19
1.58392e-19
1.58864e-19
1.58114e-19
1.48315e-19
1.47494e-19
1.46743e-19
1.45271e-19
1.4664e-19
1.45183e-19
1.43923e-19
1.4286e-19
1.45888e-19
1.45113e-19
1.44499e-19
1.44607e-19
1.43103e-19
1.43483e-19
1.43879e-19
1.44362e-19
1.47992e-19
1.4925e-19
1.51526e-19
1.54709e-19
1.48155e-19
1.51122e-19
1.53694e-19
1.56735e-19
1.63732e-19
1.66968e-19
1.69953e-19
1.72482e-19
1.71301e-19
1.73686e-19
1.76329e-19
1.77396e-19
1.73937e-19
1.73232e-19
1.75258e-19
1.74708e-19
1.71858e-19
1.71011e-19
1.69937e-19
1.69011e-19
1.68559e-19
1.68346e-19
1.68587e-19
1.686e-19
1.71876e-19
1.73066e-19
1.74508e-19
1.7553e-19
1.66201e-19
1.68123e-19
1.66266e-19
1.68003e-19
1.64928e-19
1.66054e-19
1.6749e-19
1.68766e-19
1.69671e-19
1.706e-19
1.7137e-19
1.72641e-19
1.70684e-19
1.72102e-19
1.73337e-19
1.75217e-19
1.68267e-19
1.69566e-19
1.6989e-19
1.69977e-19
1.72655e-19
1.72231e-19
1.7227e-19
1.72311e-19
1.72653e-19
1.73159e-19
1.73686e-19
1.74486e-19
1.75375e-19
1.72393e-19
1.73198e-19
1.7477e-19
1.75942e-19
1.74274e-19
1.75833e-19
1.77871e-19
1.79649e-19
1.8143e-19
1.83198e-19
1.84936e-19
1.86533e-19
1.90972e-19
1.91932e-19
1.92559e-19
1.93097e-19
1.905e-19
1.90673e-19
1.90913e-19
1.90962e-19
1.81424e-19
1.81796e-19
1.82507e-19
1.82918e-19
1.83304e-19
1.83357e-19
1.83341e-19
1.83808e-19
1.81864e-19
1.8215e-19
1.81972e-19
1.82713e-19
1.80766e-19
1.81948e-19
1.8293e-19
1.83418e-19
1.8811e-19
1.89297e-19
1.91424e-19
1.93624e-19
1.95821e-19
1.98137e-19
2.0088e-19
2.03353e-19
2.02811e-19
2.05718e-19
2.08608e-19
2.1098e-19
2.03195e-19
2.05428e-19
2.06984e-19
2.08858e-19
2.07228e-19
2.08589e-19
2.09174e-19
2.09738e-19
2.10035e-19
2.10305e-19
2.09985e-19
2.08896e-19
2.10074e-19
2.08331e-19
2.09108e-19
2.08431e-19
2.058e-19
2.07291e-19
2.12282e-19
2.14498e-19
2.13525e-19
2.14855e-19
2.15239e-19
2.15434e-19
2.15421e-19
2.15797e-19
2.12574e-19
2.12492e-19
2.13671e-19
2.12488e-19
2.11648e-19
2.10179e-19
2.12945e-19
2.11838e-19
2.107e-19
2.0911e-19
2.16833e-19
2.15453e-19
2.14667e-19
2.13976e-19
2.13158e-19
2.12552e-19
2.11921e-19
2.11856e-19
2.15312e-19
2.15208e-19
2.14786e-19
2.14312e-19
2.16813e-19
2.17246e-19
2.21524e-19
2.21932e-19
2.24691e-19
2.23668e-19
2.232e-19
2.22367e-19
2.2214e-19
2.22096e-19
2.21784e-19
2.22173e-19
2.13239e-19
2.13675e-19
2.13807e-19
2.13676e-19
2.04293e-19
2.03855e-19
2.03894e-19
2.04285e-19
2.01228e-19
2.01155e-19
2.00652e-19
2.00343e-19
2.00452e-19
2.00812e-19
2.01198e-19
2.02075e-19
2.01846e-19
2.04948e-19
2.04123e-19
2.05431e-19
2.0509e-19
2.02856e-19
2.03232e-19
2.0375e-19
2.04501e-19
2.05208e-19
2.05853e-19
2.0615e-19
2.06585e-19
2.10806e-19
2.11221e-19
2.11045e-19
2.11487e-19
2.09572e-19
2.09469e-19
2.07945e-19
2.06915e-19
2.09345e-19
2.08138e-19
2.0599e-19
2.04329e-19
2.02673e-19
2.01334e-19
2.00067e-19
1.99572e-19
2.09616e-19
2.09534e-19
2.09363e-19
2.08776e-19
2.05573e-19
2.06133e-19
2.07212e-19
2.0742e-19
2.03965e-19
2.03913e-19
2.04406e-19
2.04922e-19
2.05479e-19
2.06507e-19
2.04457e-19
2.05153e-19
2.02209e-19
2.02376e-19
2.03667e-19
2.04754e-19
1.95319e-19
1.95604e-19
1.99604e-19
2.00306e-19
1.97519e-19
1.97157e-19
1.96093e-19
1.94862e-19
1.9332e-19
1.91768e-19
1.89916e-19
1.88377e-19
1.89783e-19
1.88024e-19
1.8533e-19
1.82876e-19
1.84605e-19
1.82499e-19
1.79468e-19
1.77599e-19
1.80634e-19
1.79557e-19
1.78127e-19
1.769e-19
1.75843e-19
1.75337e-19
1.75424e-19
1.75164e-19
1.65945e-19
1.66189e-19
1.66878e-19
1.67029e-19
1.63105e-19
1.63946e-19
1.68295e-19
1.70614e-19
1.70363e-19
1.72128e-19
1.72812e-19
1.73014e-19
1.72974e-19
1.72655e-19
1.71741e-19
1.70839e-19
1.72704e-19
1.71125e-19
1.69056e-19
1.66454e-19
1.66626e-19
1.64141e-19
1.6224e-19
1.6005e-19
1.66212e-19
1.64017e-19
1.62623e-19
1.61589e-19
1.60607e-19
1.59931e-19
1.5935e-19
1.58492e-19
1.60219e-19
1.59422e-19
1.58957e-19
1.59638e-19
1.51383e-19
1.52734e-19
1.54274e-19
1.5566e-19
1.5459e-19
1.56138e-19
1.58276e-19
1.61044e-19
1.60239e-19
1.62499e-19
1.63947e-19
1.65349e-19
1.67563e-19
1.68148e-19
1.70587e-19
1.72534e-19
1.73604e-19
1.70104e-19
1.70262e-19
1.70929e-19
1.71339e-19
1.71712e-19
1.71907e-19
1.72193e-19
1.72955e-19
1.64785e-19
1.65002e-19
1.75083e-19
1.7456e-19
1.64482e-19
1.64636e-19
1.65434e-19
1.67038e-19
1.59273e-19
1.60672e-19
1.61482e-19
1.62267e-19
1.63072e-19
1.63486e-19
1.66453e-19
1.66639e-19
1.71051e-19
1.7182e-19
1.73058e-19
1.73693e-19
1.64253e-19
1.64871e-19
1.65788e-19
1.66777e-19
1.71065e-19
1.7173e-19
1.71803e-19
1.71882e-19
1.71724e-19
1.71652e-19
1.71473e-19
1.72054e-19
1.69442e-19
1.69714e-19
1.72143e-19
1.72782e-19
1.71419e-19
1.72787e-19
1.73795e-19
1.76285e-19
1.70088e-19
1.72403e-19
1.72996e-19
1.73068e-19
1.73393e-19
1.73525e-19
1.73885e-19
1.73627e-19
1.63992e-19
1.64224e-19
1.65072e-19
1.65685e-19
1.55598e-19
1.55882e-19
1.5668e-19
1.57823e-19
1.5694e-19
1.58118e-19
1.58703e-19
1.59147e-19
1.59487e-19
1.59123e-19
1.61258e-19
1.62444e-19
1.61159e-19
1.62906e-19
1.64584e-19
1.66615e-19
1.65214e-19
1.67092e-19
1.68302e-19
1.69876e-19
1.76066e-19
1.77235e-19
1.77904e-19
1.77058e-19
1.85089e-19
1.84028e-19
1.83956e-19
1.83007e-19
1.85463e-19
1.85392e-19
1.82119e-19
1.82011e-19
1.84941e-19
1.85005e-19
1.94711e-19
1.95011e-19
1.92701e-19
1.92621e-19
1.91883e-19
1.90988e-19
1.90158e-19
1.89114e-19
1.88058e-19
1.86396e-19
1.87384e-19
1.86044e-19
1.8529e-19
1.84384e-19
1.8723e-19
1.86591e-19
1.86411e-19
1.86675e-19
1.78044e-19
1.78827e-19
1.79228e-19
1.79854e-19
1.7986e-19
1.8008e-19
1.80065e-19
1.80145e-19
1.79736e-19
1.75848e-19
1.75185e-19
1.74866e-19
1.75042e-19
1.65045e-19
1.65273e-19
1.6483e-19
1.64752e-19
1.64673e-19
1.65718e-19
1.70887e-19
1.7227e-19
1.70357e-19
1.72312e-19
1.73926e-19
1.75895e-19
1.75551e-19
1.77062e-19
1.77899e-19
1.77258e-19
1.78526e-19
1.76404e-19
1.75073e-19
1.73989e-19
1.73523e-19
1.73278e-19
1.73649e-19
1.72839e-19
1.68741e-19
1.68271e-19
1.77583e-19
1.76711e-19
1.78558e-19
1.7742e-19
1.86723e-19
1.85636e-19
1.82235e-19
1.81966e-19
1.81963e-19
1.81604e-19
1.81144e-19
1.80282e-19
1.79201e-19
1.77244e-19
1.78027e-19
1.75718e-19
1.74121e-19
1.73161e-19
1.76491e-19
1.75522e-19
1.77276e-19
1.76975e-19
1.68231e-19
1.68789e-19
1.68701e-19
1.68476e-19
1.68246e-19
1.67905e-19
1.67255e-19
1.66164e-19
1.73959e-19
1.71254e-19
1.70692e-19
1.74064e-19
1.68117e-19
1.6565e-19
1.63288e-19
1.62124e-19
1.58309e-19
1.57603e-19
1.56711e-19
1.55959e-19
1.55422e-19
1.54702e-19
1.54104e-19
1.53312e-19
1.55825e-19
1.55599e-19
1.5553e-19
1.54667e-19
1.50046e-19
1.49602e-19
1.49553e-19
1.49627e-19
1.4699e-19
1.46506e-19
1.45301e-19
1.43955e-19
1.42332e-19
1.41714e-19
1.45637e-19
1.46618e-19
1.44538e-19
1.44932e-19
1.44622e-19
1.44982e-19
1.54271e-19
1.54245e-19
1.53108e-19
1.52587e-19
1.61849e-19
1.61174e-19
1.60083e-19
1.59404e-19
1.5895e-19
1.58716e-19
1.58848e-19
1.59637e-19
1.51366e-19
1.5281e-19
1.53455e-19
1.54076e-19
1.43994e-19
1.43767e-19
1.43946e-19
1.43528e-19
1.39447e-19
1.39186e-19
1.38734e-19
1.38031e-19
1.37213e-19
1.3672e-19
1.35877e-19
1.38144e-19
1.37841e-19
1.3586e-19
1.3658e-19
1.36383e-19
1.36856e-19
1.27214e-19
1.27796e-19
1.27658e-19
1.27562e-19
1.27658e-19
1.27689e-19
1.2798e-19
1.28021e-19
1.18101e-19
1.18526e-19
1.19789e-19
1.21626e-19
1.21876e-19
1.23635e-19
1.24667e-19
1.25753e-19
1.24066e-19
1.25276e-19
1.26293e-19
1.2804e-19
1.29802e-19
1.3176e-19
1.38477e-19
1.40534e-19
1.33033e-19
1.35032e-19
1.37528e-19
1.4061e-19
1.40167e-19
1.42981e-19
1.45487e-19
1.47429e-19
1.39284e-19
1.40381e-19
1.41263e-19
1.41908e-19
1.42348e-19
1.4239e-19
1.4246e-19
1.42417e-19
1.39033e-19
1.39463e-19
1.43686e-19
1.44984e-19
1.42571e-19
1.43586e-19
1.41258e-19
1.42019e-19
1.39785e-19
1.4014e-19
1.40986e-19
1.41435e-19
1.41757e-19
1.41673e-19
1.41579e-19
1.41226e-19
1.37381e-19
1.37491e-19
1.37953e-19
1.38368e-19
1.29296e-19
1.28531e-19
1.29166e-19
1.27684e-19
1.23991e-19
1.23675e-19
1.23778e-19
1.23908e-19
1.24442e-19
1.25194e-19
1.2629e-19
1.27243e-19
1.23886e-19
1.25406e-19
1.27738e-19
1.2981e-19
1.27904e-19
1.29316e-19
1.305e-19
1.30787e-19
1.26196e-19
1.2554e-19
1.24842e-19
1.24751e-19
1.22064e-19
1.21697e-19
1.2142e-19
1.20451e-19
1.23088e-19
1.22454e-19
1.22743e-19
1.22814e-19
1.20145e-19
1.20399e-19
1.21057e-19
1.20972e-19
1.2422e-19
1.23902e-19
1.23767e-19
1.23343e-19
1.22689e-19
1.2262e-19
1.25669e-19
1.25035e-19
1.26596e-19
1.2525e-19
1.24701e-19
1.2342e-19
1.23859e-19
1.22593e-19
1.21738e-19
1.2069e-19
1.17408e-19
1.16628e-19
1.16183e-19
1.1573e-19
1.19017e-19
1.18221e-19
1.1736e-19
1.16533e-19
1.15484e-19
1.14419e-19
1.13374e-19
1.12367e-19
1.11406e-19
1.10492e-19
1.09624e-19
1.08799e-19
1.08014e-19
1.07264e-19
1.06546e-19
1.05857e-19
1.05193e-19
1.04554e-19
1.03937e-19
1.0334e-19
1.02762e-19
1.02202e-19
1.01659e-19
1.01132e-19
1.0062e-19
1.00123e-19
9.96398e-20
9.917e-20
9.87131e-20
9.82684e-20
9.78355e-20
9.74139e-20
9.70031e-20
9.66026e-20
9.62121e-20
9.58311e-20
9.54593e-20
9.50962e-20
9.47415e-20
9.43949e-20
9.4056e-20
9.37245e-20
9.34002e-20
9.30828e-20
9.27719e-20
9.24673e-20
9.21688e-20
9.18762e-20
9.15891e-20
9.13075e-20
9.10311e-20
9.07596e-20
9.04929e-20
9.02309e-20
8.99732e-20
8.97198e-20
8.94705e-20
8.92251e-20
8.89834e-20
8.87453e-20
8.85106e-20
8.82791e-20
8.80508e-20
8.78255e-20
8.7603e-20
8.73831e-20
8.71659e-20
8.6951e-20
8.67384e-20
8.6528e-20
8.63197e-20
8.61132e-20
8.59086e-20
8.57056e-20
8.55042e-20
8.53042e-20
8.51057e-20
8.49083e-20
8.47121e-20
8.4517e-20
8.43229e-20
8.41296e-20
8.39372e-20
8.37454e-20
8.35544e-20
8.33638e-20
8.31738e-20
8.29842e-20
8.2795e-20
8.26061e-20
8.24175e-20
8.22291e-20
8.20408e-20
8.18527e-20
8.16646e-20
8.14765e-20
8.12884e-20
8.11003e-20
8.09121e-20
8.07238e-20
8.05354e-20
8.03468e-20
8.0158e-20
7.9969e-20
7.97798e-20
7.95903e-20
7.94006e-20
7.92107e-20
7.90204e-20
7.88298e-20
7.8639e-20
7.84478e-20
7.82563e-20
7.80645e-20
7.78724e-20
7.76799e-20
7.74871e-20
7.7294e-20
7.71005e-20
7.69066e-20
7.67125e-20
7.6518e-20
7.63231e-20
7.61279e-20
7.59324e-20
7.57366e-20
7.55404e-20
7.53439e-20
7.51471e-20
7.49499e-20
7.47525e-20
7.45547e-20
7.43567e-20
7.41583e-20
7.39596e-20
7.37607e-20
7.35615e-20
7.3362e-20
7.31622e-20
7.29622e-20
7.27619e-20
7.25613e-20
7.23606e-20
7.21595e-20
7.19583e-20
7.17568e-20
7.15551e-20
7.13532e-20
7.11511e-20
7.09488e-20
7.07464e-20
7.05437e-20
7.03409e-20
7.01378e-20
6.99347e-20
6.97314e-20
6.95279e-20
6.93243e-20
6.91206e-20
6.89167e-20
6.87127e-20
6.85087e-20
6.83045e-20
6.81002e-20
6.78958e-20
6.76914e-20
6.74869e-20
6.72823e-20
6.70776e-20
6.6873e-20
6.66682e-20
6.64634e-20
6.62586e-20
6.60538e-20
6.58489e-20
6.56441e-20
6.54392e-20
6.52344e-20
6.50295e-20
6.48247e-20
6.46199e-20
6.44151e-20
6.42103e-20
6.40056e-20
6.3801e-20
6.35964e-20
6.33918e-20
6.31874e-20
6.2983e-20
6.27787e-20
6.25744e-20
6.23703e-20
6.21663e-20
6.19623e-20
6.17585e-20
6.15548e-20
6.13512e-20
6.11477e-20
6.09444e-20
6.07412e-20
6.05381e-20
6.03352e-20
6.01325e-20
5.99299e-20
5.97275e-20
5.95252e-20
5.93231e-20
5.91212e-20
5.89195e-20
5.8718e-20
5.85167e-20
5.83155e-20
5.81146e-20
5.79139e-20
5.77134e-20
5.75131e-20
5.7313e-20
5.71132e-20
5.69136e-20
5.67142e-20
5.65151e-20
5.63162e-20
5.61175e-20
5.59191e-20
5.5721e-20
5.55231e-20
5.53255e-20
5.51282e-20
5.49311e-20
5.47343e-20
5.45378e-20
5.43416e-20
5.41457e-20
5.395e-20
5.37547e-20
5.35596e-20
5.33649e-20
5.31705e-20
5.29763e-20
5.27825e-20
5.2589e-20
5.23958e-20
5.2203e-20
5.20104e-20
5.18182e-20
5.16264e-20
5.14348e-20
5.12436e-20
5.10528e-20
5.08623e-20
5.06721e-20
5.04823e-20
5.02929e-20
5.01038e-20
4.9915e-20
4.97267e-20
4.95386e-20
4.9351e-20
4.91637e-20
4.89768e-20
4.87903e-20
4.86042e-20
4.84184e-20
4.8233e-20
4.8048e-20
4.78634e-20
4.76792e-20
4.74953e-20
4.73119e-20
4.71289e-20
4.69462e-20
4.6764e-20
4.65822e-20
4.64007e-20
4.62197e-20
4.60391e-20
4.58589e-20
4.56791e-20
4.54997e-20
4.53208e-20
4.51423e-20
4.49642e-20
4.47865e-20
4.46092e-20
4.44324e-20
4.42559e-20
4.408e-20
4.39044e-20
4.37293e-20
4.35546e-20
4.33804e-20
4.32066e-20
4.30332e-20
4.28603e-20
4.26878e-20
4.25157e-20
4.23441e-20
4.2173e-20
4.20023e-20
4.1832e-20
4.16622e-20
4.14928e-20
4.13239e-20
4.11555e-20
4.09875e-20
4.08199e-20
4.06528e-20
4.04862e-20
4.032e-20
4.01543e-20
3.99891e-20
3.98243e-20
3.96599e-20
3.94961e-20
3.93327e-20
3.91697e-20
3.90072e-20
3.88452e-20
3.86837e-20
3.85226e-20
3.8362e-20
3.82019e-20
3.80422e-20
3.7883e-20
3.77242e-20
3.7566e-20
3.74082e-20
3.72509e-20
3.7094e-20
3.69376e-20
3.67817e-20
3.66263e-20
3.64713e-20
3.63169e-20
3.61628e-20
3.60093e-20
3.58563e-20
3.57037e-20
3.55516e-20
3.53999e-20
3.52488e-20
3.50981e-20
3.49479e-20
3.47981e-20
3.46489e-20
3.45001e-20
3.43518e-20
3.4204e-20
3.40566e-20
3.39098e-20
3.37634e-20
3.36174e-20
3.3472e-20
3.3327e-20
3.31825e-20
3.30385e-20
3.2895e-20
3.27519e-20
3.26093e-20
3.24672e-20
3.23255e-20
3.21844e-20
3.20437e-20
3.19035e-20
3.17637e-20
3.16245e-20
3.14857e-20
3.13473e-20
3.12095e-20
3.10721e-20
3.09352e-20
3.07988e-20
3.06628e-20
3.05273e-20
3.03923e-20
3.02577e-20
3.01237e-20
2.999e-20
2.98569e-20
2.97242e-20
2.9592e-20
2.94603e-20
2.9329e-20
2.91982e-20
2.90679e-20
2.8938e-20
2.88086e-20
2.86796e-20
2.85511e-20
2.84231e-20
2.82955e-20
2.81684e-20
2.80418e-20
2.79156e-20
2.77899e-20
2.76647e-20
2.75399e-20
2.74155e-20
2.72916e-20
2.71682e-20
2.70452e-20
2.69227e-20
2.68006e-20
2.6679e-20
2.65578e-20
2.64371e-20
2.63169e-20
2.61971e-20
2.60777e-20
2.59588e-20
2.58403e-20
2.57223e-20
2.56047e-20
2.54876e-20
2.53709e-20
2.52547e-20
2.51389e-20
2.50235e-20
2.49086e-20
2.47942e-20
2.46801e-20
2.45665e-20
2.44534e-20
2.43406e-20
2.42283e-20
2.41165e-20
2.40051e-20
2.38941e-20
2.37835e-20
2.36734e-20
2.35637e-20
2.34544e-20
2.33456e-20
2.32372e-20
2.31292e-20
2.30217e-20
2.29145e-20
2.28078e-20
2.27015e-20
2.25956e-20
2.24902e-20
2.23852e-20
2.22805e-20
2.21763e-20
2.20726e-20
2.19692e-20
2.18663e-20