/*--------------------------------*- C++ -*----------------------------------*\
| =========                 |                                                 |
| \\      /  F ield         | OpenFOAM: The Open Source CFD Toolbox           |
|  \\    /   O peration     | Version:  2312                                  |
|   \\  /    A nd           | Website:  www.openfoam.com                      |
|    \\/     M anipulation  |                                                 |
\*---------------------------------------------------------------------------*/
FoamFile
{
    version     2.0;
    format      ascii;
    arch        "LSB;label=32;scalar=64";
    class       volVectorField;
    location    "38.405";
    object      U;
}
// * * * * * * * * * * * * * * * * * * * * * * * * * * * * * * * * * * * * * //

dimensions      [0 1 -1 0 0 0 0];

internalField   nonuniform List<vector> 
4000
(
(0.0126852 9.59824e-19 0)
(0.03804 1.3607e-18 0)
(0.0633791 1.58864e-18 0)
(0.0886997 1.44854e-18 0)
(0.113992 1.42207e-18 0)
(0.139228 1.42609e-18 0)
(0.164354 1.43298e-18 0)
(0.189271 1.43973e-18 0)
(0.213835 1.45492e-18 0)
(0.237862 1.47387e-18 0)
(0.261146 1.46077e-18 0)
(0.283495 1.44159e-18 0)
(0.304751 1.42608e-18 0)
(0.324815 1.40246e-18 0)
(0.343643 1.38865e-18 0)
(0.361244 1.38023e-18 0)
(0.377663 1.37504e-18 0)
(0.392968 1.37277e-18 0)
(0.407238 1.37125e-18 0)
(0.420558 1.37026e-18 0)
(0.433012 1.36965e-18 0)
(0.444678 1.36932e-18 0)
(0.455629 1.36921e-18 0)
(0.465931 1.36927e-18 0)
(0.475644 1.36947e-18 0)
(0.484822 1.3698e-18 0)
(0.493513 1.37022e-18 0)
(0.501759 1.36805e-18 0)
(0.509599 1.36352e-18 0)
(0.517066 1.35931e-18 0)
(0.52419 1.35538e-18 0)
(0.531 1.3517e-18 0)
(0.537519 1.34538e-18 0)
(0.543769 1.33663e-18 0)
(0.54977 1.3283e-18 0)
(0.555539 1.32034e-18 0)
(0.561093 1.31272e-18 0)
(0.566446 1.30543e-18 0)
(0.571611 1.29843e-18 0)
(0.5766 1.29171e-18 0)
(0.581425 1.28525e-18 0)
(0.586094 1.27902e-18 0)
(0.590618 1.27302e-18 0)
(0.595005 1.26723e-18 0)
(0.599262 1.26163e-18 0)
(0.603397 1.25622e-18 0)
(0.607416 1.25098e-18 0)
(0.611325 1.24591e-18 0)
(0.615131 1.241e-18 0)
(0.618837 1.23623e-18 0)
(0.62245 1.2316e-18 0)
(0.625973 1.22711e-18 0)
(0.629411 1.22274e-18 0)
(0.632768 1.21849e-18 0)
(0.636047 1.21436e-18 0)
(0.639252 1.21034e-18 0)
(0.642386 1.20643e-18 0)
(0.645452 1.20262e-18 0)
(0.648453 1.1989e-18 0)
(0.651392 1.19527e-18 0)
(0.654271 1.19173e-18 0)
(0.657092 1.18827e-18 0)
(0.659858 1.18489e-18 0)
(0.662571 1.18159e-18 0)
(0.665232 1.17835e-18 0)
(0.667845 1.17518e-18 0)
(0.670409 1.17207e-18 0)
(0.672928 1.16902e-18 0)
(0.675403 1.16602e-18 0)
(0.677835 1.16307e-18 0)
(0.680226 1.16016e-18 0)
(0.682577 1.15729e-18 0)
(0.68489 1.15446e-18 0)
(0.687165 1.15166e-18 0)
(0.689404 1.14889e-18 0)
(0.691608 1.14613e-18 0)
(0.693778 1.1434e-18 0)
(0.695915 1.14067e-18 0)
(0.698021 1.13796e-18 0)
(0.700095 1.13524e-18 0)
(0.70214 1.13253e-18 0)
(0.704155 1.1298e-18 0)
(0.706142 1.12707e-18 0)
(0.708102 1.12432e-18 0)
(0.710034 1.12155e-18 0)
(0.711941 1.11875e-18 0)
(0.713822 1.11593e-18 0)
(0.715679 1.11307e-18 0)
(0.717511 1.11018e-18 0)
(0.71932 1.10725e-18 0)
(0.721107 1.10428e-18 0)
(0.722871 1.10126e-18 0)
(0.724613 1.0982e-18 0)
(0.726335 1.09509e-18 0)
(0.728035 1.09193e-18 0)
(0.729716 1.08872e-18 0)
(0.731377 1.08546e-18 0)
(0.733018 1.08215e-18 0)
(0.734641 1.07879e-18 0)
(0.736246 1.07539e-18 0)
(0.737833 1.07194e-18 0)
(0.739402 1.06845e-18 0)
(0.740954 1.06492e-18 0)
(0.742489 1.06135e-18 0)
(0.744008 1.05775e-18 0)
(0.745511 1.05413e-18 0)
(0.746998 1.05048e-18 0)
(0.74847 1.04683e-18 0)
(0.749927 1.04316e-18 0)
(0.751369 1.03949e-18 0)
(0.752797 1.03583e-18 0)
(0.75421 1.03219e-18 0)
(0.75561 1.02856e-18 0)
(0.756996 1.02497e-18 0)
(0.758369 1.02142e-18 0)
(0.759729 1.01791e-18 0)
(0.761075 1.01446e-18 0)
(0.76241 1.01107e-18 0)
(0.763732 1.00774e-18 0)
(0.765041 1.00448e-18 0)
(0.766339 1.00128e-18 0)
(0.767626 9.98136e-19 0)
(0.7689 9.95031e-19 0)
(0.770164 9.91947e-19 0)
(0.771416 9.88859e-19 0)
(0.772658 9.85732e-19 0)
(0.773889 9.82523e-19 0)
(0.775109 9.79172e-19 0)
(0.776319 9.756e-19 0)
(0.777519 9.71707e-19 0)
(0.778709 9.67435e-19 0)
(0.779889 9.62631e-19 0)
(0.781059 9.57185e-19 0)
(0.78222 9.50962e-19 0)
(0.783372 9.43811e-19 0)
(0.784514 9.3564e-19 0)
(0.785647 9.26445e-19 0)
(0.786772 9.16289e-19 0)
(0.787887 9.04895e-19 0)
(0.788994 8.97373e-19 0)
(0.790093 8.84056e-19 0)
(0.791183 8.70786e-19 0)
(0.792265 8.63265e-19 0)
(0.793338 8.52084e-19 0)
(0.794404 8.42382e-19 0)
(0.795462 8.33832e-19 0)
(0.796512 8.26555e-19 0)
(0.797554 8.20488e-19 0)
(0.798589 8.15545e-19 0)
(0.799616 8.11588e-19 0)
(0.800636 8.085e-19 0)
(0.801649 8.06126e-19 0)
(0.802654 8.04397e-19 0)
(0.803653 8.03202e-19 0)
(0.804644 8.02452e-19 0)
(0.805629 8.02074e-19 0)
(0.806606 8.02e-19 0)
(0.807578 8.02159e-19 0)
(0.808542 8.02476e-19 0)
(0.8095 8.02858e-19 0)
(0.810452 8.03249e-19 0)
(0.811397 8.03509e-19 0)
(0.812336 8.03461e-19 0)
(0.813269 8.02946e-19 0)
(0.814195 8.01759e-19 0)
(0.815116 7.99713e-19 0)
(0.816031 7.9658e-19 0)
(0.816939 7.92171e-19 0)
(0.817842 7.86304e-19 0)
(0.81874 7.79416e-19 0)
(0.819631 7.61798e-19 0)
(0.820517 7.68073e-19 0)
(0.821397 7.74527e-19 0)
(0.822272 7.57883e-19 0)
(0.823141 7.524e-19 0)
(0.824006 7.48312e-19 0)
(0.824864 7.46099e-19 0)
(0.825718 7.4553e-19 0)
(0.826566 7.46424e-19 0)
(0.827409 7.48568e-19 0)
(0.828247 7.5179e-19 0)
(0.829081 7.55909e-19 0)
(0.829909 7.60798e-19 0)
(0.830732 7.6632e-19 0)
(0.83155 7.7238e-19 0)
(0.832364 7.78915e-19 0)
(0.833173 7.85887e-19 0)
(0.833977 7.93279e-19 0)
(0.834776 8.01086e-19 0)
(0.835571 8.09262e-19 0)
(0.836362 8.17812e-19 0)
(0.837147 8.26736e-19 0)
(0.837929 8.3603e-19 0)
(0.838706 8.45681e-19 0)
(0.839478 8.55666e-19 0)
(0.840246 8.65949e-19 0)
(0.84101 8.76536e-19 0)
(0.84177 8.87378e-19 0)
(0.842525 8.98427e-19 0)
(0.843276 9.09639e-19 0)
(0.844024 9.20965e-19 0)
(0.844767 9.32586e-19 0)
(0.845505 9.40893e-19 0)
(0.84624 9.19697e-19 0)
(0.846971 8.9858e-19 0)
(0.847698 9.06903e-19 0)
(0.848422 9.18472e-19 0)
(0.849141 9.2963e-19 0)
(0.849856 9.40597e-19 0)
(0.850568 9.51317e-19 0)
(0.851276 9.61735e-19 0)
(0.85198 9.71795e-19 0)
(0.85268 9.81484e-19 0)
(0.853377 9.90748e-19 0)
(0.85407 9.99589e-19 0)
(0.854759 1.00797e-18 0)
(0.855445 1.01587e-18 0)
(0.856128 1.02328e-18 0)
(0.856807 1.0302e-18 0)
(0.857482 1.03664e-18 0)
(0.858154 1.04262e-18 0)
(0.858822 1.04816e-18 0)
(0.859487 1.05324e-18 0)
(0.860149 1.05792e-18 0)
(0.860807 1.06221e-18 0)
(0.861462 1.06615e-18 0)
(0.862114 1.06975e-18 0)
(0.862762 1.07302e-18 0)
(0.863408 1.07601e-18 0)
(0.86405 1.07874e-18 0)
(0.864688 1.08124e-18 0)
(0.865324 1.08354e-18 0)
(0.865957 1.08562e-18 0)
(0.866586 1.08751e-18 0)
(0.867212 1.08922e-18 0)
(0.867835 1.09078e-18 0)
(0.868456 1.09221e-18 0)
(0.869073 1.09352e-18 0)
(0.869687 1.09472e-18 0)
(0.870298 1.09583e-18 0)
(0.870906 1.09685e-18 0)
(0.871511 1.0978e-18 0)
(0.872114 1.09868e-18 0)
(0.872713 1.0995e-18 0)
(0.87331 1.10024e-18 0)
(0.873903 1.10091e-18 0)
(0.874494 1.10151e-18 0)
(0.875082 1.10206e-18 0)
(0.875667 1.10256e-18 0)
(0.87625 1.10303e-18 0)
(0.87683 1.10347e-18 0)
(0.877407 1.10388e-18 0)
(0.877981 1.10427e-18 0)
(0.878552 1.10465e-18 0)
(0.879121 1.10502e-18 0)
(0.879687 1.10539e-18 0)
(0.880251 1.10576e-18 0)
(0.880812 1.10613e-18 0)
(0.88137 1.10651e-18 0)
(0.881926 1.1069e-18 0)
(0.882479 1.1073e-18 0)
(0.88303 1.10772e-18 0)
(0.883578 1.10815e-18 0)
(0.884123 1.10861e-18 0)
(0.884666 1.10908e-18 0)
(0.885206 1.10958e-18 0)
(0.885744 1.11011e-18 0)
(0.88628 1.11065e-18 0)
(0.886813 1.11123e-18 0)
(0.887344 1.11183e-18 0)
(0.887872 1.11245e-18 0)
(0.888398 1.11311e-18 0)
(0.888921 1.11379e-18 0)
(0.889442 1.11451e-18 0)
(0.889961 1.11525e-18 0)
(0.890477 1.11602e-18 0)
(0.890991 1.11682e-18 0)
(0.891503 1.11765e-18 0)
(0.892012 1.1185e-18 0)
(0.892519 1.11939e-18 0)
(0.893024 1.1203e-18 0)
(0.893526 1.12125e-18 0)
(0.894027 1.12222e-18 0)
(0.894525 1.12322e-18 0)
(0.89502 1.12424e-18 0)
(0.895514 1.12529e-18 0)
(0.896005 1.12637e-18 0)
(0.896494 1.12748e-18 0)
(0.896981 1.12861e-18 0)
(0.897466 1.12977e-18 0)
(0.897949 1.13095e-18 0)
(0.898429 1.13215e-18 0)
(0.898908 1.13338e-18 0)
(0.899384 1.13463e-18 0)
(0.899858 1.13591e-18 0)
(0.90033 1.13721e-18 0)
(0.9008 1.13853e-18 0)
(0.901268 1.13987e-18 0)
(0.901734 1.14123e-18 0)
(0.902198 1.14261e-18 0)
(0.902659 1.14401e-18 0)
(0.903119 1.14543e-18 0)
(0.903577 1.14687e-18 0)
(0.904032 1.14833e-18 0)
(0.904486 1.1498e-18 0)
(0.904938 1.15129e-18 0)
(0.905387 1.1528e-18 0)
(0.905835 1.15433e-18 0)
(0.906281 1.15587e-18 0)
(0.906725 1.15742e-18 0)
(0.907166 1.15899e-18 0)
(0.907606 1.16058e-18 0)
(0.908044 1.16218e-18 0)
(0.908481 1.16379e-18 0)
(0.908915 1.16541e-18 0)
(0.909347 1.16705e-18 0)
(0.909777 1.1687e-18 0)
(0.910206 1.17036e-18 0)
(0.910633 1.17203e-18 0)
(0.911058 1.17372e-18 0)
(0.911481 1.17541e-18 0)
(0.911902 1.17712e-18 0)
(0.912321 1.17883e-18 0)
(0.912738 1.18055e-18 0)
(0.913154 1.18229e-18 0)
(0.913568 1.18403e-18 0)
(0.91398 1.18578e-18 0)
(0.91439 1.18754e-18 0)
(0.914799 1.18931e-18 0)
(0.915206 1.19108e-18 0)
(0.915611 1.19286e-18 0)
(0.916014 1.19465e-18 0)
(0.916415 1.19645e-18 0)
(0.916815 1.19825e-18 0)
(0.917213 1.20006e-18 0)
(0.917609 1.20187e-18 0)
(0.918004 1.20369e-18 0)
(0.918397 1.20552e-18 0)
(0.918788 1.20735e-18 0)
(0.919178 1.20919e-18 0)
(0.919565 1.21103e-18 0)
(0.919952 1.21287e-18 0)
(0.920336 1.21473e-18 0)
(0.920719 1.21658e-18 0)
(0.9211 1.21844e-18 0)
(0.921479 1.2203e-18 0)
(0.921857 1.22217e-18 0)
(0.922234 1.22404e-18 0)
(0.922608 1.22591e-18 0)
(0.922981 1.22779e-18 0)
(0.923353 1.22966e-18 0)
(0.923722 1.23155e-18 0)
(0.92409 1.23343e-18 0)
(0.924457 1.23532e-18 0)
(0.924822 1.23721e-18 0)
(0.925185 1.2391e-18 0)
(0.925547 1.24099e-18 0)
(0.925908 1.24289e-18 0)
(0.926266 1.24479e-18 0)
(0.926624 1.24669e-18 0)
(0.926979 1.24859e-18 0)
(0.927333 1.25049e-18 0)
(0.927686 1.25239e-18 0)
(0.928037 1.2543e-18 0)
(0.928386 1.2562e-18 0)
(0.928735 1.25811e-18 0)
(0.929081 1.26002e-18 0)
(0.929426 1.26193e-18 0)
(0.92977 1.26384e-18 0)
(0.930112 1.26575e-18 0)
(0.930452 1.26766e-18 0)
(0.930791 1.26957e-18 0)
(0.931129 1.27148e-18 0)
(0.931465 1.2734e-18 0)
(0.9318 1.27531e-18 0)
(0.932133 1.27722e-18 0)
(0.932465 1.27913e-18 0)
(0.932795 1.28105e-18 0)
(0.933124 1.28296e-18 0)
(0.933452 1.28487e-18 0)
(0.933778 1.28678e-18 0)
(0.934102 1.2887e-18 0)
(0.934425 1.29061e-18 0)
(0.934747 1.29252e-18 0)
(0.935068 1.29443e-18 0)
(0.935387 1.29634e-18 0)
(0.935704 1.29825e-18 0)
(0.936021 1.30016e-18 0)
(0.936336 1.30207e-18 0)
(0.936649 1.30398e-18 0)
(0.936961 1.30589e-18 0)
(0.937272 1.3078e-18 0)
(0.937582 1.3097e-18 0)
(0.93789 1.31161e-18 0)
(0.938196 1.31351e-18 0)
(0.938502 1.31542e-18 0)
(0.938806 1.31732e-18 0)
(0.939109 1.31923e-18 0)
(0.93941 1.32113e-18 0)
(0.93971 1.32303e-18 0)
(0.940009 1.32493e-18 0)
(0.940306 1.32683e-18 0)
(0.940602 1.32872e-18 0)
(0.940897 1.33062e-18 0)
(0.941191 1.33252e-18 0)
(0.941483 1.33441e-18 0)
(0.941774 1.33631e-18 0)
(0.942064 1.3382e-18 0)
(0.942352 1.34009e-18 0)
(0.942639 1.34198e-18 0)
(0.942925 1.34387e-18 0)
(0.94321 1.34576e-18 0)
(0.943493 1.34764e-18 0)
(0.943775 1.34953e-18 0)
(0.944056 1.35141e-18 0)
(0.944336 1.3533e-18 0)
(0.944614 1.35518e-18 0)
(0.944891 1.35706e-18 0)
(0.945167 1.35894e-18 0)
(0.945442 1.36082e-18 0)
(0.945715 1.3627e-18 0)
(0.945988 1.36457e-18 0)
(0.946259 1.36645e-18 0)
(0.946528 1.36832e-18 0)
(0.946797 1.37019e-18 0)
(0.947065 1.37206e-18 0)
(0.947331 1.37393e-18 0)
(0.947596 1.3758e-18 0)
(0.94786 1.37767e-18 0)
(0.948122 1.37954e-18 0)
(0.948384 1.3814e-18 0)
(0.948644 1.38327e-18 0)
(0.948903 1.38513e-18 0)
(0.949161 1.38699e-18 0)
(0.949418 1.38885e-18 0)
(0.949674 1.39071e-18 0)
(0.949928 1.39257e-18 0)
(0.950182 1.39442e-18 0)
(0.950434 1.39628e-18 0)
(0.950685 1.39813e-18 0)
(0.950935 1.39999e-18 0)
(0.951184 1.40184e-18 0)
(0.951432 1.40369e-18 0)
(0.951678 1.40554e-18 0)
(0.951924 1.40739e-18 0)
(0.952168 1.40924e-18 0)
(0.952412 1.41108e-18 0)
(0.952654 1.41293e-18 0)
(0.952895 1.41477e-18 0)
(0.953135 1.41661e-18 0)
(0.953374 1.41846e-18 0)
(0.953611 1.4203e-18 0)
(0.953848 1.42214e-18 0)
(0.954084 1.42397e-18 0)
(0.954318 1.42581e-18 0)
(0.954552 1.42765e-18 0)
(0.954784 1.42948e-18 0)
(0.955015 1.43132e-18 0)
(0.955246 1.43315e-18 0)
(0.955475 1.43498e-18 0)
(0.955703 1.43681e-18 0)
(0.95593 1.43865e-18 0)
(0.956156 1.44047e-18 0)
(0.956381 1.4423e-18 0)
(0.956605 1.44413e-18 0)
(0.956828 1.44596e-18 0)
(0.95705 1.44778e-18 0)
(0.957271 1.44961e-18 0)
(0.957491 1.45143e-18 0)
(0.95771 1.45325e-18 0)
(0.957927 1.45507e-18 0)
(0.958144 1.45689e-18 0)
(0.95836 1.45871e-18 0)
(0.958575 1.46053e-18 0)
(0.958789 1.46235e-18 0)
(0.959001 1.46417e-18 0)
(0.959213 1.46598e-18 0)
(0.959424 1.4678e-18 0)
(0.959634 1.46961e-18 0)
(0.959843 1.47143e-18 0)
(0.96005 1.47324e-18 0)
(0.960257 1.47505e-18 0)
(0.960463 1.47686e-18 0)
(0.960668 1.47868e-18 0)
(0.960872 1.48048e-18 0)
(0.961075 1.48229e-18 0)
(0.961277 1.4841e-18 0)
(0.961478 1.48591e-18 0)
(0.961678 1.48772e-18 0)
(0.961877 1.48952e-18 0)
(0.962076 1.49133e-18 0)
(0.962273 1.49313e-18 0)
(0.962469 1.49494e-18 0)
(0.962665 1.49674e-18 0)
(0.962859 1.49854e-18 0)
(0.963053 1.50034e-18 0)
(0.963245 1.50215e-18 0)
(0.963437 1.50395e-18 0)
(0.963628 1.50575e-18 0)
(0.963818 1.50755e-18 0)
(0.964007 1.50934e-18 0)
(0.964195 1.51114e-18 0)
(0.964382 1.51294e-18 0)
(0.964568 1.51474e-18 0)
(0.964753 1.51653e-18 0)
(0.964938 1.51833e-18 0)
(0.965121 1.52013e-18 0)
(0.965304 1.52192e-18 0)
(0.965486 1.52371e-18 0)
(0.965667 1.52551e-18 0)
(0.965847 1.5273e-18 0)
(0.966026 1.5291e-18 0)
(0.966204 1.53089e-18 0)
(0.966381 1.53268e-18 0)
(0.966558 1.53447e-18 0)
(0.966734 1.53626e-18 0)
(0.966908 1.53805e-18 0)
(0.967082 1.53984e-18 0)
(0.967255 1.54163e-18 0)
(0.967428 1.54342e-18 0)
(0.967599 1.54521e-18 0)
(0.96777 1.547e-18 0)
(0.967939 1.54879e-18 0)
(0.968108 1.55058e-18 0)
(0.968276 1.55236e-18 0)
(0.968443 1.55415e-18 0)
(0.96861 1.55594e-18 0)
(0.968775 1.55772e-18 0)
(0.96894 1.55951e-18 0)
(0.969104 1.5613e-18 0)
(0.969267 1.56308e-18 0)
(0.969429 1.56487e-18 0)
(0.969591 1.56665e-18 0)
(0.969751 1.56844e-18 0)
(0.969911 1.57022e-18 0)
(0.97007 1.57201e-18 0)
(0.970228 1.57379e-18 0)
(0.970386 1.57558e-18 0)
(0.970542 1.57736e-18 0)
(0.970698 1.57914e-18 0)
(0.970853 1.58093e-18 0)
(0.971008 1.58271e-18 0)
(0.971161 1.58449e-18 0)
(0.971314 1.58628e-18 0)
(0.971466 1.58806e-18 0)
(0.971617 1.58984e-18 0)
(0.971768 1.59162e-18 0)
(0.971917 1.59341e-18 0)
(0.972066 1.59519e-18 0)
(0.972214 1.59697e-18 0)
(0.972362 1.59875e-18 0)
(0.972508 1.60054e-18 0)
(0.972654 1.60232e-18 0)
(0.972799 1.6041e-18 0)
(0.972944 1.60588e-18 0)
(0.973087 1.60767e-18 0)
(0.97323 1.60945e-18 0)
(0.973372 1.61123e-18 0)
(0.973514 1.61301e-18 0)
(0.973654 1.6148e-18 0)
(0.973794 1.61658e-18 0)
(0.973933 1.61836e-18 0)
(0.974072 1.62014e-18 0)
(0.97421 1.62193e-18 0)
(0.974347 1.62371e-18 0)
(0.974483 1.62549e-18 0)
(0.974619 1.62727e-18 0)
(0.974754 1.62906e-18 0)
(0.974888 1.63084e-18 0)
(0.975022 1.63262e-18 0)
(0.975154 1.63441e-18 0)
(0.975287 1.63619e-18 0)
(0.975418 1.63797e-18 0)
(0.975549 1.63976e-18 0)
(0.975679 1.64154e-18 0)
(0.975808 1.64333e-18 0)
(0.975937 1.64511e-18 0)
(0.976065 1.6469e-18 0)
(0.976192 1.64868e-18 0)
(0.976319 1.65047e-18 0)
(0.976445 1.65225e-18 0)
(0.97657 1.65404e-18 0)
(0.976695 1.65582e-18 0)
(0.976819 1.65761e-18 0)
(0.976942 1.6594e-18 0)
(0.977065 1.66118e-18 0)
(0.977187 1.66297e-18 0)
(0.977308 1.66476e-18 0)
(0.977429 1.66655e-18 0)
(0.977549 1.66834e-18 0)
(0.977668 1.67012e-18 0)
(0.977787 1.67191e-18 0)
(0.977905 1.6737e-18 0)
(0.978023 1.67549e-18 0)
(0.978139 1.67728e-18 0)
(0.978256 1.67907e-18 0)
(0.978371 1.68087e-18 0)
(0.978486 1.68266e-18 0)
(0.978601 1.68445e-18 0)
(0.978714 1.68624e-18 0)
(0.978827 1.68803e-18 0)
(0.97894 1.68983e-18 0)
(0.979052 1.69162e-18 0)
(0.979163 1.69341e-18 0)
(0.979274 1.69521e-18 0)
(0.979384 1.697e-18 0)
(0.979493 1.6988e-18 0)
(0.979602 1.7006e-18 0)
(0.97971 1.70239e-18 0)
(0.979818 1.70419e-18 0)
(0.979925 1.70599e-18 0)
(0.980031 1.70779e-18 0)
(0.980137 1.70958e-18 0)
(0.980242 1.71138e-18 0)
(0.980347 1.71318e-18 0)
(0.980451 1.71498e-18 0)
(0.980555 1.71678e-18 0)
(0.980658 1.71859e-18 0)
(0.98076 1.72039e-18 0)
(0.980862 1.72219e-18 0)
(0.980963 1.72399e-18 0)
(0.981064 1.7258e-18 0)
(0.981164 1.7276e-18 0)
(0.981263 1.72941e-18 0)
(0.981362 1.73121e-18 0)
(0.981461 1.73302e-18 0)
(0.981559 1.73483e-18 0)
(0.981656 1.73663e-18 0)
(0.981753 1.73844e-18 0)
(0.981849 1.74025e-18 0)
(0.981945 1.74206e-18 0)
(0.98204 1.74387e-18 0)
(0.982134 1.74568e-18 0)
(0.982229 1.74749e-18 0)
(0.982322 1.7493e-18 0)
(0.982415 1.75112e-18 0)
(0.982508 1.75293e-18 0)
(0.9826 1.75474e-18 0)
(0.982691 1.75656e-18 0)
(0.982782 1.75837e-18 0)
(0.982872 1.76019e-18 0)
(0.982962 1.76201e-18 0)
(0.983051 1.76382e-18 0)
(0.98314 1.76564e-18 0)
(0.983229 1.76746e-18 0)
(0.983316 1.76928e-18 0)
(0.983404 1.7711e-18 0)
(0.983491 1.77292e-18 0)
(0.983577 1.77474e-18 0)
(0.983663 1.77657e-18 0)
(0.983748 1.77839e-18 0)
(0.983833 1.78021e-18 0)
(0.983917 1.78204e-18 0)
(0.984001 1.78386e-18 0)
(0.984084 1.78569e-18 0)
(0.984167 1.78751e-18 0)
(0.98425 1.78934e-18 0)
(0.984331 1.79117e-18 0)
(0.984413 1.793e-18 0)
(0.984494 1.79482e-18 0)
(0.984574 1.79665e-18 0)
(0.984654 1.79848e-18 0)
(0.984734 1.80031e-18 0)
(0.984813 1.80215e-18 0)
(0.984891 1.80398e-18 0)
(0.98497 1.80581e-18 0)
(0.985047 1.80764e-18 0)
(0.985125 1.80948e-18 0)
(0.985201 1.81131e-18 0)
(0.985278 1.81315e-18 0)
(0.985353 1.81499e-18 0)
(0.985429 1.81682e-18 0)
(0.985504 1.81866e-18 0)
(0.985578 1.8205e-18 0)
(0.985652 1.82233e-18 0)
(0.985726 1.82417e-18 0)
(0.985799 1.82601e-18 0)
(0.985872 1.82785e-18 0)
(0.985944 1.82969e-18 0)
(0.986016 1.83154e-18 0)
(0.986088 1.83338e-18 0)
(0.986159 1.83522e-18 0)
(0.986229 1.83706e-18 0)
(0.986299 1.8389e-18 0)
(0.986369 1.84075e-18 0)
(0.986438 1.84259e-18 0)
(0.986507 1.84444e-18 0)
(0.986576 1.84628e-18 0)
(0.986644 1.84813e-18 0)
(0.986712 1.84997e-18 0)
(0.986779 1.85182e-18 0)
(0.986846 1.85367e-18 0)
(0.986912 1.85551e-18 0)
(0.986978 1.85736e-18 0)
(0.987044 1.85921e-18 0)
(0.987109 1.86106e-18 0)
(0.987174 1.86291e-18 0)
(0.987238 1.86476e-18 0)
(0.987302 1.8666e-18 0)
(0.987366 1.86845e-18 0)
(0.987429 1.8703e-18 0)
(0.987492 1.87215e-18 0)
(0.987555 1.874e-18 0)
(0.987617 1.87585e-18 0)
(0.987679 1.8777e-18 0)
(0.98774 1.87955e-18 0)
(0.987801 1.8814e-18 0)
(0.987862 1.88326e-18 0)
(0.987922 1.88511e-18 0)
(0.987982 1.88696e-18 0)
(0.988041 1.88881e-18 0)
(0.9881 1.89066e-18 0)
(0.988159 1.89251e-18 0)
(0.988217 1.89436e-18 0)
(0.988275 1.89621e-18 0)
(0.988333 1.89806e-18 0)
(0.98839 1.89991e-18 0)
(0.988447 1.90176e-18 0)
(0.988504 1.90361e-18 0)
(0.98856 1.90546e-18 0)
(0.988616 1.90731e-18 0)
(0.988672 1.90916e-18 0)
(0.988727 1.91101e-18 0)
(0.988782 1.91286e-18 0)
(0.988836 1.91471e-18 0)
(0.98889 1.91656e-18 0)
(0.988944 1.9184e-18 0)
(0.988998 1.92025e-18 0)
(0.989051 1.9221e-18 0)
(0.989104 1.92394e-18 0)
(0.989156 1.92579e-18 0)
(0.989208 1.92764e-18 0)
(0.98926 1.92948e-18 0)
(0.989312 1.93132e-18 0)
(0.989363 1.93317e-18 0)
(0.989414 1.93501e-18 0)
(0.989464 1.93685e-18 0)
(0.989514 1.93869e-18 0)
(0.989564 1.94053e-18 0)
(0.989614 1.94237e-18 0)
(0.989663 1.94421e-18 0)
(0.989712 1.94604e-18 0)
(0.989761 1.94788e-18 0)
(0.989809 1.94972e-18 0)
(0.989857 1.95155e-18 0)
(0.989905 1.95338e-18 0)
(0.989952 1.95521e-18 0)
(0.989999 1.95704e-18 0)
(0.990046 1.95887e-18 0)
(0.990092 1.9607e-18 0)
(0.990138 1.96253e-18 0)
(0.990184 1.96435e-18 0)
(0.99023 1.96617e-18 0)
(0.990275 1.96799e-18 0)
(0.99032 1.96981e-18 0)
(0.990365 1.97163e-18 0)
(0.990409 1.97345e-18 0)
(0.990453 1.97526e-18 0)
(0.990497 1.97708e-18 0)
(0.990541 1.97889e-18 0)
(0.990584 1.9807e-18 0)
(0.990627 1.98251e-18 0)
(0.99067 1.98431e-18 0)
(0.990712 1.98611e-18 0)
(0.990755 1.98792e-18 0)
(0.990796 1.98971e-18 0)
(0.990838 1.99151e-18 0)
(0.990879 1.99331e-18 0)
(0.99092 1.9951e-18 0)
(0.990961 1.99689e-18 0)
(0.991002 1.99867e-18 0)
(0.991042 2.00046e-18 0)
(0.991082 2.00224e-18 0)
(0.991122 2.00402e-18 0)
(0.991161 2.0058e-18 0)
(0.991201 2.00757e-18 0)
(0.99124 2.00934e-18 0)
(0.991278 2.01111e-18 0)
(0.991317 2.01287e-18 0)
(0.991355 2.01463e-18 0)
(0.991393 2.01639e-18 0)
(0.991431 2.01815e-18 0)
(0.991468 2.0199e-18 0)
(0.991505 2.02165e-18 0)
(0.991542 2.02339e-18 0)
(0.991579 2.02514e-18 0)
(0.991615 2.02688e-18 0)
(0.991652 2.02862e-18 0)
(0.991688 2.03035e-18 0)
(0.991723 2.03208e-18 0)
(0.991759 2.03381e-18 0)
(0.991794 2.03554e-18 0)
(0.991829 2.03726e-18 0)
(0.991864 2.03898e-18 0)
(0.991899 2.0407e-18 0)
(0.991933 2.04241e-18 0)
(0.991967 2.04412e-18 0)
(0.992001 2.04583e-18 0)
(0.992034 2.04753e-18 0)
(0.992068 2.04923e-18 0)
(0.992101 2.05093e-18 0)
(0.992134 2.05262e-18 0)
(0.992167 2.05431e-18 0)
(0.992199 2.056e-18 0)
(0.992232 2.05768e-18 0)
(0.992264 2.05936e-18 0)
(0.992296 2.06104e-18 0)
(0.992327 2.06271e-18 0)
(0.992359 2.06438e-18 0)
(0.99239 2.06604e-18 0)
(0.992421 2.0677e-18 0)
(0.992452 2.06936e-18 0)
(0.992482 2.07101e-18 0)
(0.992513 2.07266e-18 0)
(0.992543 2.07431e-18 0)
(0.992573 2.07595e-18 0)
(0.992603 2.0776e-18 0)
(0.992632 2.07923e-18 0)
(0.992662 2.08086e-18 0)
(0.992691 2.08249e-18 0)
(0.99272 2.08412e-18 0)
(0.992749 2.08574e-18 0)
(0.992777 2.08736e-18 0)
(0.992806 2.08897e-18 0)
(0.992834 2.09058e-18 0)
(0.992862 2.09218e-18 0)
(0.99289 2.09378e-18 0)
(0.992917 2.09538e-18 0)
(0.992945 2.09697e-18 0)
(0.992972 2.09855e-18 0)
(0.992999 2.10013e-18 0)
(0.993026 2.10171e-18 0)
(0.993053 2.10328e-18 0)
(0.993079 2.10485e-18 0)
(0.993105 2.10641e-18 0)
(0.993131 2.10797e-18 0)
(0.993157 2.10952e-18 0)
(0.993183 2.11107e-18 0)
(0.993209 2.11261e-18 0)
(0.993234 2.11414e-18 0)
(0.993259 2.11567e-18 0)
(0.993285 2.1172e-18 0)
(0.993309 2.11871e-18 0)
(0.993334 2.12023e-18 0)
(0.993359 2.12173e-18 0)
(0.993383 2.12323e-18 0)
(0.993407 2.12473e-18 0)
(0.993431 2.12622e-18 0)
(0.993455 2.1277e-18 0)
(0.993479 2.12918e-18 0)
(0.993502 2.13065e-18 0)
(0.993526 2.13211e-18 0)
(0.993549 2.13356e-18 0)
(0.993572 2.13501e-18 0)
(0.993595 2.13646e-18 0)
(0.993618 2.13789e-18 0)
(0.99364 2.13932e-18 0)
(0.993662 2.14074e-18 0)
(0.993685 2.14216e-18 0)
(0.993707 2.14357e-18 0)
(0.993729 2.14497e-18 0)
(0.993751 2.14636e-18 0)
(0.993772 2.14774e-18 0)
(0.993794 2.14912e-18 0)
(0.993815 2.15049e-18 0)
(0.993836 2.15185e-18 0)
(0.993857 2.1532e-18 0)
(0.993878 2.15455e-18 0)
(0.993899 2.15589e-18 0)
(0.993919 2.15722e-18 0)
(0.99394 2.15853e-18 0)
(0.99396 2.15985e-18 0)
(0.99398 2.16115e-18 0)
(0.994 2.16244e-18 0)
(0.99402 2.16373e-18 0)
(0.99404 2.165e-18 0)
(0.994059 2.16627e-18 0)
(0.994079 2.16752e-18 0)
(0.994098 2.16877e-18 0)
(0.994117 2.17001e-18 0)
(0.994136 2.17124e-18 0)
(0.994155 2.17246e-18 0)
(0.994174 2.17367e-18 0)
(0.994192 2.17487e-18 0)
(0.994211 2.17606e-18 0)
(0.994229 2.17724e-18 0)
(0.994247 2.17842e-18 0)
(0.994265 2.17958e-18 0)
(0.994283 2.18073e-18 0)
(0.994301 2.18187e-18 0)
(0.994319 2.183e-18 0)
(0.994336 2.18412e-18 0)
(0.994354 2.18523e-18 0)
(0.994371 2.18633e-18 0)
(0.994388 2.18741e-18 0)
(0.994405 2.18849e-18 0)
(0.994422 2.18955e-18 0)
(0.994439 2.1906e-18 0)
(0.994456 2.19164e-18 0)
(0.994472 2.19267e-18 0)
(0.994489 2.19369e-18 0)
(0.994505 2.19469e-18 0)
(0.994521 2.19568e-18 0)
(0.994537 2.19666e-18 0)
(0.994553 2.19762e-18 0)
(0.994569 2.19857e-18 0)
(0.994585 2.19951e-18 0)
(0.994601 2.20043e-18 0)
(0.994616 2.20134e-18 0)
(0.994632 2.20223e-18 0)
(0.994647 2.2031e-18 0)
(0.994662 2.20397e-18 0)
(0.994677 2.20481e-18 0)
(0.994692 2.20564e-18 0)
(0.994707 2.20645e-18 0)
(0.994722 2.20724e-18 0)
(0.994736 2.20802e-18 0)
(0.994751 2.20877e-18 0)
(0.994765 2.20951e-18 0)
(0.994779 2.21023e-18 0)
(0.994794 2.21092e-18 0)
(0.994808 2.2116e-18 0)
(0.994822 2.21225e-18 0)
(0.994836 2.21288e-18 0)
(0.994849 2.21349e-18 0)
(0.994863 2.21407e-18 0)
(0.994877 2.21463e-18 0)
(0.99489 2.21516e-18 0)
(0.994904 2.21567e-18 0)
(0.994917 2.21614e-18 0)
(0.99493 2.21659e-18 0)
(0.994943 2.217e-18 0)
(0.994956 2.21738e-18 0)
(0.994969 2.21772e-18 0)
(0.994982 2.21803e-18 0)
(0.994994 2.2183e-18 0)
(0.995007 2.21853e-18 0)
(0.99502 2.21872e-18 0)
(0.995032 2.21886e-18 0)
(0.995044 2.21895e-18 0)
(0.995057 2.219e-18 0)
(0.995069 2.21899e-18 0)
(0.995081 2.21892e-18 0)
(0.995093 2.2188e-18 0)
(0.995105 2.21861e-18 0)
(0.995116 2.21835e-18 0)
(0.995128 2.21802e-18 0)
(0.99514 2.21762e-18 0)
(0.995151 2.21713e-18 0)
(0.995163 2.21656e-18 0)
(0.995174 2.2159e-18 0)
(0.995185 2.21515e-18 0)
(0.995196 2.21429e-18 0)
(0.995207 2.21332e-18 0)
(0.995218 2.21224e-18 0)
(0.995229 2.21104e-18 0)
(0.99524 2.2097e-18 0)
(0.995251 2.20823e-18 0)
(0.995262 2.20662e-18 0)
(0.995272 2.20485e-18 0)
(0.995283 2.20292e-18 0)
(0.995293 2.20082e-18 0)
(0.995303 2.19853e-18 0)
(0.995314 2.19606e-18 0)
(0.995324 2.1934e-18 0)
(0.995334 2.19052e-18 0)
(0.995344 2.18743e-18 0)
(0.995354 2.18412e-18 0)
(0.995364 2.18057e-18 0)
(0.995374 2.17678e-18 0)
(0.995384 2.17275e-18 0)
(0.995393 2.16846e-18 0)
(0.995403 2.16391e-18 0)
(0.995412 2.1591e-18 0)
(0.995422 2.15403e-18 0)
(0.995431 2.14869e-18 0)
(0.99544 2.1431e-18 0)
(0.99545 2.13725e-18 0)
(0.995459 2.13116e-18 0)
(0.995468 2.12484e-18 0)
(0.995477 2.11831e-18 0)
(0.995486 2.11158e-18 0)
(0.995495 2.10469e-18 0)
(0.995504 2.09766e-18 0)
(0.995512 2.09054e-18 0)
(0.995521 2.08336e-18 0)
(0.99553 2.07618e-18 0)
(0.995538 2.06904e-18 0)
(0.995547 2.062e-18 0)
(0.995555 2.05513e-18 0)
(0.995563 2.04849e-18 0)
(0.995572 2.04214e-18 0)
(0.99558 2.03614e-18 0)
(0.995588 2.03054e-18 0)
(0.995596 2.02539e-18 0)
(0.995604 2.02069e-18 0)
(0.995612 2.0164e-18 0)
(0.99562 2.01242e-18 0)
(0.995628 2.00852e-18 0)
(0.995636 2.00428e-18 0)
(0.995643 1.99895e-18 0)
(0.995651 1.992e-18 0)
(0.995659 1.97976e-18 0)
(0.995666 1.98767e-18 0)
(0.995674 1.9962e-18 0)
(0.995681 1.98613e-18 0)
(0.995688 1.9775e-18 0)
(0.995696 1.9758e-18 0)
(0.995703 1.97431e-18 0)
(0.99571 1.96631e-18 0)
(0.995717 1.95593e-18 0)
(0.995724 1.92119e-18 0)
(0.995731 1.88524e-18 0)
(0.995738 1.87126e-18 0)
(0.995745 1.85848e-18 0)
(0.995752 1.8264e-18 0)
(0.995759 1.79479e-18 0)
(0.995766 1.78278e-18 0)
(0.995772 1.77884e-18 0)
(0.995779 1.79077e-18 0)
(0.995786 1.80211e-18 0)
(0.995792 1.79873e-18 0)
(0.995799 1.79996e-18 0)
(0.995805 1.83376e-18 0)
(0.995811 1.86646e-18 0)
(0.995818 1.86521e-18 0)
(0.995824 1.84944e-18 0)
(0.99583 1.84782e-18 0)
(0.995836 1.84921e-18 0)
(0.995843 1.8405e-18 0)
(0.995849 1.83609e-18 0)
(0.995855 1.80545e-18 0)
(0.995861 1.77595e-18 0)
(0.995867 1.77498e-18 0)
(0.995873 1.77134e-18 0)
(0.995878 1.7642e-18 0)
(0.995884 1.75119e-18 0)
(0.99589 1.73511e-18 0)
(0.995896 1.73378e-18 0)
(0.995901 1.71855e-18 0)
(0.995907 1.70254e-18 0)
(0.995912 1.70218e-18 0)
(0.995918 1.69075e-18 0)
(0.995923 1.69334e-18 0)
(0.995929 1.69471e-18 0)
(0.995934 1.6794e-18 0)
(0.99594 1.67329e-18 0)
(0.995945 1.65429e-18 0)
(0.99595 1.63477e-18 0)
(0.995955 1.62694e-18 0)
(0.995961 1.60822e-18 0)
(0.995966 1.56991e-18 0)
(0.995971 1.53676e-18 0)
(0.995976 1.5313e-18 0)
(0.995981 1.53135e-18 0)
(0.995986 1.51527e-18 0)
(0.995991 1.49812e-18 0)
(0.995996 1.49721e-18 0)
(0.996001 1.50538e-18 0)
(0.996005 1.50091e-18 0)
(0.99601 1.49705e-18 0)
(0.996015 1.50643e-18 0)
(0.99602 1.51706e-18 0)
(0.996024 1.52822e-18 0)
(0.996029 1.54253e-18 0)
(0.996033 1.56024e-18 0)
(0.996038 1.56732e-18 0)
(0.996043 1.55626e-18 0)
(0.996047 1.54173e-18 0)
(0.996051 1.53895e-18 0)
(0.996056 1.53177e-18 0)
(0.99606 1.5071e-18 0)
(0.996065 1.4806e-18 0)
(0.996069 1.46694e-18 0)
(0.996073 1.46654e-18 0)
(0.996077 1.45509e-18 0)
(0.996082 1.44824e-18 0)
(0.996086 1.46209e-18 0)
(0.99609 1.46761e-18 0)
(0.996094 1.4233e-18 0)
(0.996098 1.38041e-18 0)
(0.996102 1.39084e-18 0)
(0.996106 1.40574e-18 0)
(0.99611 1.40733e-18 0)
(0.996114 1.40459e-18 0)
(0.996118 1.40854e-18 0)
(0.996122 1.41689e-18 0)
(0.996125 1.40866e-18 0)
(0.996129 1.40021e-18 0)
(0.996133 1.40476e-18 0)
(0.996137 1.39834e-18 0)
(0.99614 1.34482e-18 0)
(0.996144 1.2888e-18 0)
(0.996148 1.27811e-18 0)
(0.996151 1.27537e-18 0)
(0.996155 1.32347e-18 0)
(0.996158 1.37293e-18 0)
(0.996162 1.37366e-18 0)
(0.996165 1.37701e-18 0)
(0.996169 1.40099e-18 0)
(0.996172 1.42383e-18 0)
(0.996176 1.42394e-18 0)
(0.996179 1.41765e-18 0)
(0.996182 1.42387e-18 0)
(0.996186 1.43087e-18 0)
(0.996189 1.42444e-18 0)
(0.996192 1.41062e-18 0)
(0.996195 1.36814e-18 0)
(0.996199 1.32937e-18 0)
(0.996202 1.32452e-18 0)
(0.996205 1.31938e-18 0)
(0.996208 1.32792e-18 0)
(0.996211 1.33767e-18 0)
(0.996214 1.33532e-18 0)
(0.996217 1.34574e-18 0)
(0.99622 1.37663e-18 0)
(0.996223 1.40607e-18 0)
(0.996226 1.41201e-18 0)
(0.996229 1.40491e-18 0)
(0.996232 1.41598e-18 0)
(0.996235 1.43285e-18 0)
(0.996238 1.43843e-18 0)
(0.996241 1.44447e-18 0)
(0.996244 1.43182e-18 0)
(0.996246 1.42204e-18 0)
(0.996249 1.43666e-18 0)
(0.996252 1.45987e-18 0)
(0.996255 1.47468e-18 0)
(0.996257 1.43302e-18 0)
(0.99626 1.39138e-18 0)
(0.996263 1.40687e-18 0)
(0.996265 1.42453e-18 0)
(0.996268 1.42023e-18 0)
(0.996271 1.41243e-18 0)
(0.996273 1.42231e-18 0)
(0.996276 1.42969e-18 0)
(0.996278 1.41117e-18 0)
(0.996281 1.38526e-18 0)
(0.996283 1.37304e-18 0)
(0.996286 1.35439e-18 0)
(0.996288 1.34294e-18 0)
(0.996291 1.32672e-18 0)
(0.996293 1.29306e-18 0)
(0.996295 1.25968e-18 0)
(0.996298 1.2333e-18 0)
(0.9963 1.20857e-18 0)
(0.996302 1.18264e-18 0)
(0.996305 1.17263e-18 0)
(0.996307 1.1974e-18 0)
(0.996309 1.22311e-18 0)
(0.996311 1.21924e-18 0)
(0.996314 1.20636e-18 0)
(0.996316 1.21152e-18 0)
(0.996318 1.21966e-18 0)
(0.99632 1.21558e-18 0)
(0.996322 1.22931e-18 0)
(0.996324 1.27812e-18 0)
(0.996327 1.3267e-18 0)
(0.996329 1.34199e-18 0)
(0.996331 1.35545e-18 0)
(0.996333 1.36497e-18 0)
(0.996335 1.37134e-18 0)
(0.996337 1.37549e-18 0)
(0.996339 1.37262e-18 0)
(0.996341 1.3606e-18 0)
(0.996343 1.34816e-18 0)
(0.996345 1.34199e-18 0)
(0.996347 1.32486e-18 0)
(0.996349 1.31965e-18 0)
(0.996351 1.31265e-18 0)
(0.996352 1.29077e-18 0)
(0.996354 1.27034e-18 0)
(0.996356 1.23385e-18 0)
(0.996358 1.19816e-18 0)