/*--------------------------------*- C++ -*----------------------------------*\
| =========                 |                                                 |
| \\      /  F ield         | OpenFOAM: The Open Source CFD Toolbox           |
|  \\    /   O peration     | Version:  2312                                  |
|   \\  /    A nd           | Website:  www.openfoam.com                      |
|    \\/     M anipulation  |                                                 |
\*---------------------------------------------------------------------------*/
FoamFile
{
    version     2.0;
    format      ascii;
    arch        "LSB;label=32;scalar=64";
    class       volScalarField;
    location    "12.47";
    object      nut;
}
// * * * * * * * * * * * * * * * * * * * * * * * * * * * * * * * * * * * * * //

dimensions      [0 2 -1 0 0 0 0];

internalField   nonuniform List<scalar> 
1000
(
1.41029e-05
3.25787e-05
6.83017e-05
0.000109461
0.000151557
0.000193381
0.000234597
0.000275121
0.00031495
0.000354105
0.000392617
0.000430516
0.000467831
0.000504588
0.000540809
0.000576515
0.000611725
0.000646454
0.000680717
0.000714527
0.000747896
0.000780836
0.000813356
0.000845464
0.00087717
0.000908482
0.000939406
0.00096995
0.00100012
0.00102992
0.00105936
0.00108844
0.00111717
0.00114555
0.00117359
0.00120129
0.00122865
0.00125569
0.0012824
0.00130879
0.00133486
0.00136061
0.00138605
0.00141119
0.00143602
0.00146054
0.00148477
0.0015087
0.00153234
0.00155569
0.00157876
0.00160153
0.00162403
0.00164625
0.00166819
0.00168985
0.00171125
0.00173237
0.00175323
0.00177383
0.00179416
0.00181423
0.00183405
0.00185361
0.00187292
0.00189197
0.00191078
0.00192934
0.00194766
0.00196573
0.00198357
0.00200116
0.00201852
0.00203565
0.00205254
0.0020692
0.00208563
0.00210184
0.00211782
0.00213358
0.00214911
0.00216443
0.00217953
0.00219441
0.00220908
0.00222353
0.00223778
0.00225181
0.00226564
0.00227925
0.00229267
0.00230588
0.00231889
0.0023317
0.00234431
0.00235673
0.00236895
0.00238097
0.0023928
0.00240444
0.0024159
0.00242716
0.00243823
0.00244913
0.00245983
0.00247036
0.0024807
0.00249086
0.00250084
0.00251065
0.00252028
0.00252973
0.00253901
0.00254812
0.00255706
0.00256583
0.00257442
0.00258285
0.00259112
0.00259922
0.00260715
0.00261492
0.00262253
0.00262998
0.00263727
0.0026444
0.00265137
0.00265818
0.00266484
0.00267135
0.0026777
0.0026839
0.00268995
0.00269584
0.00270159
0.00270719
0.00271264
0.00271795
0.00272311
0.00272812
0.00273299
0.00273772
0.00274231
0.00274675
0.00275106
0.00275522
0.00275925
0.00276314
0.00276689
0.00277051
0.00277399
0.00277734
0.00278055
0.00278363
0.00278658
0.0027894
0.00279209
0.00279464
0.00279707
0.00279938
0.00280155
0.0028036
0.00280552
0.00280732
0.002809
0.00281055
0.00281197
0.00281328
0.00281447
0.00281553
0.00281648
0.0028173
0.00281801
0.0028186
0.00281907
0.00281943
0.00281967
0.0028198
0.00281981
0.00281971
0.0028195
0.00281918
0.00281874
0.00281819
0.00281754
0.00281677
0.0028159
0.00281492
0.00281383
0.00281264
0.00281134
0.00280993
0.00280842
0.00280681
0.0028051
0.00280328
0.00280136
0.00279934
0.00279722
0.002795
0.00279269
0.00279027
0.00278776
0.00278515
0.00278245
0.00277965
0.00277676
0.00277377
0.0027707
0.00276753
0.00276427
0.00276092
0.00275748
0.00275395
0.00275033
0.00274663
0.00274284
0.00273896
0.002735
0.00273096
0.00272683
0.00272262
0.00271833
0.00271396
0.00270951
0.00270498
0.00270037
0.00269569
0.00269093
0.00268609
0.00268119
0.0026762
0.00267115
0.00266602
0.00266083
0.00265556
0.00265022
0.00264482
0.00263935
0.00263382
0.00262822
0.00262256
0.00261683
0.00261105
0.0026052
0.00259929
0.00259333
0.0025873
0.00258123
0.00257509
0.0025689
0.00256266
0.00255637
0.00255003
0.00254363
0.00253719
0.0025307
0.00252417
0.00251759
0.00251096
0.0025043
0.00249759
0.00249084
0.00248405
0.00247723
0.00247036
0.00246347
0.00245653
0.00244957
0.00244257
0.00243555
0.00242849
0.0024214
0.00241429
0.00240716
0.0024
0.00239281
0.00238561
0.00237838
0.00237114
0.00236388
0.0023566
0.00234931
0.002342
0.00233468
0.00232735
0.00232001
0.00231266
0.0023053
0.00229794
0.00229058
0.00228321
0.00227583
0.00226846
0.00226109
0.00225372
0.00224636
0.002239
0.00223164
0.00222429
0.00221695
0.00220962
0.00220231
0.002195
0.00218771
0.00218043
0.00217317
0.00216593
0.0021587
0.0021515
0.00214431
0.00213715
0.00213002
0.0021229
0.00211582
0.00210876
0.00210173
0.00209473
0.00208776
0.00208082
0.00207391
0.00206704
0.0020602
0.0020534
0.00204664
0.00203992
0.00203323
0.00202658
0.00201998
0.00201342
0.0020069
0.00200042
0.00199399
0.00198761
0.00198127
0.00197498
0.00196874
0.00196255
0.00195641
0.00195031
0.00194427
0.00193828
0.00193235
0.00192647
0.00192064
0.00191486
0.00190915
0.00190348
0.00189788
0.00189233
0.00188684
0.0018814
0.00187603
0.00187071
0.00186545
0.00186025
0.00185511
0.00185004
0.00184502
0.00184006
0.00183516
0.00183033
0.00182555
0.00182084
0.00181618
0.00181159
0.00180706
0.0018026
0.00179819
0.00179385
0.00178957
0.00178534
0.00178119
0.00177709
0.00177305
0.00176908
0.00176516
0.00176131
0.00175752
0.00175378
0.00175011
0.0017465
0.00174295
0.00173945
0.00173602
0.00173264
0.00172933
0.00172607
0.00172287
0.00171972
0.00171663
0.0017136
0.00171063
0.00170771
0.00170484
0.00170203
0.00169927
0.00169657
0.00169392
0.00169132
0.00168877
0.00168627
0.00168383
0.00168143
0.00167909
0.00167679
0.00167454
0.00167234
0.00167019
0.00166808
0.00166602
0.001664
0.00166203
0.0016601
0.00165822
0.00165638
0.00165458
0.00165282
0.0016511
0.00164943
0.00164779
0.00164619
0.00164463
0.00164311
0.00164162
0.00164018
0.00163876
0.00163739
0.00163604
0.00163474
0.00163346
0.00163222
0.00163101
0.00162983
0.00162869
0.00162757
0.00162648
0.00162543
0.0016244
0.0016234
0.00162243
0.00162148
0.00162057
0.00161967
0.00161881
0.00161797
0.00161715
0.00161636
0.00161559
0.00161484
0.00161412
0.00161342
0.00161274
0.00161209
0.00161145
0.00161083
0.00161024
0.00160966
0.00160911
0.00160857
0.00160805
0.00160755
0.00160706
0.0016066
0.00160615
0.00160571
0.0016053
0.0016049
0.00160451
0.00160414
0.00160379
0.00160345
0.00160312
0.00160281
0.00160251
0.00160223
0.00160196
0.0016017
0.00160145
0.00160122
0.001601
0.0016008
0.0016006
0.00160042
0.00160025
0.00160009
0.00159994
0.0015998
0.00159967
0.00159956
0.00159945
0.00159936
0.00159928
0.00159921
0.00159914
0.00159909
0.00159905
0.00159902
0.001599
0.00159899
0.00159899
0.001599
0.00159902
0.00159905
0.00159909
0.00159914
0.00159921
0.00159928
0.00159936
0.00159945
0.00159956
0.00159967
0.0015998
0.00159994
0.00160009
0.00160024
0.00160042
0.0016006
0.00160079
0.001601
0.00160122
0.00160145
0.0016017
0.00160195
0.00160223
0.00160251
0.00160281
0.00160312
0.00160344
0.00160378
0.00160414
0.00160451
0.00160489
0.00160529
0.00160571
0.00160614
0.00160659
0.00160706
0.00160754
0.00160805
0.00160857
0.0016091
0.00160966
0.00161024
0.00161083
0.00161145
0.00161209
0.00161274
0.00161342
0.00161412
0.00161484
0.00161559
0.00161636
0.00161715
0.00161797
0.00161881
0.00161967
0.00162056
0.00162148
0.00162243
0.0016234
0.0016244
0.00162543
0.00162648
0.00162757
0.00162869
0.00162983
0.00163101
0.00163222
0.00163346
0.00163474
0.00163604
0.00163739
0.00163876
0.00164018
0.00164162
0.00164311
0.00164463
0.00164619
0.00164779
0.00164943
0.0016511
0.00165282
0.00165458
0.00165638
0.00165822
0.0016601
0.00166203
0.001664
0.00166602
0.00166808
0.00167019
0.00167234
0.00167454
0.00167679
0.00167909
0.00168143
0.00168383
0.00168627
0.00168877
0.00169132
0.00169392
0.00169657
0.00169927
0.00170203
0.00170484
0.00170771
0.00171063
0.0017136
0.00171663
0.00171972
0.00172287
0.00172607
0.00172933
0.00173264
0.00173602
0.00173945
0.00174295
0.0017465
0.00175011
0.00175378
0.00175752
0.00176131
0.00176516
0.00176908
0.00177305
0.00177709
0.00178119
0.00178534
0.00178957
0.00179385
0.00179819
0.0018026
0.00180706
0.00181159
0.00181618
0.00182084
0.00182555
0.00183033
0.00183516
0.00184006
0.00184502
0.00185004
0.00185511
0.00186025
0.00186545
0.00187071
0.00187603
0.0018814
0.00188684
0.00189233
0.00189788
0.00190348
0.00190915
0.00191486
0.00192064
0.00192647
0.00193235
0.00193828
0.00194427
0.00195031
0.0019564
0.00196255
0.00196874
0.00197498
0.00198127
0.00198761
0.00199399
0.00200042
0.0020069
0.00201342
0.00201998
0.00202658
0.00203323
0.00203991
0.00204664
0.0020534
0.0020602
0.00206704
0.00207391
0.00208082
0.00208776
0.00209473
0.00210173
0.00210876
0.00211582
0.0021229
0.00213001
0.00213715
0.00214431
0.0021515
0.0021587
0.00216592
0.00217317
0.00218043
0.00218771
0.002195
0.0022023
0.00220962
0.00221695
0.00222429
0.00223164
0.00223899
0.00224635
0.00225372
0.00226109
0.00226846
0.00227583
0.0022832
0.00229057
0.00229794
0.0023053
0.00231266
0.00232001
0.00232735
0.00233468
0.002342
0.0023493
0.0023566
0.00236387
0.00237114
0.00237838
0.00238561
0.00239281
0.00239999
0.00240715
0.00241429
0.0024214
0.00242849
0.00243554
0.00244257
0.00244957
0.00245653
0.00246346
0.00247036
0.00247722
0.00248405
0.00249084
0.00249759
0.00250429
0.00251096
0.00251758
0.00252416
0.0025307
0.00253719
0.00254363
0.00255002
0.00255637
0.00256266
0.0025689
0.00257509
0.00258122
0.0025873
0.00259332
0.00259929
0.0026052
0.00261104
0.00261683
0.00262256
0.00262822
0.00263382
0.00263935
0.00264482
0.00265022
0.00265556
0.00266082
0.00266602
0.00267115
0.0026762
0.00268118
0.00268609
0.00269093
0.00269569
0.00270037
0.00270498
0.00270951
0.00271396
0.00271833
0.00272262
0.00272683
0.00273095
0.002735
0.00273896
0.00274283
0.00274662
0.00275033
0.00275395
0.00275747
0.00276091
0.00276427
0.00276753
0.0027707
0.00277377
0.00277676
0.00277965
0.00278245
0.00278515
0.00278776
0.00279027
0.00279269
0.002795
0.00279722
0.00279934
0.00280136
0.00280328
0.0028051
0.00280681
0.00280842
0.00280993
0.00281134
0.00281264
0.00281383
0.00281492
0.0028159
0.00281677
0.00281754
0.00281819
0.00281874
0.00281918
0.0028195
0.00281971
0.00281981
0.0028198
0.00281967
0.00281943
0.00281907
0.0028186
0.00281801
0.0028173
0.00281648
0.00281553
0.00281447
0.00281328
0.00281197
0.00281055
0.002809
0.00280732
0.00280552
0.0028036
0.00280155
0.00279938
0.00279707
0.00279464
0.00279209
0.0027894
0.00278658
0.00278363
0.00278055
0.00277734
0.00277399
0.00277051
0.00276689
0.00276314
0.00275925
0.00275522
0.00275106
0.00274675
0.00274231
0.00273772
0.00273299
0.00272812
0.00272311
0.00271795
0.00271264
0.00270719
0.00270159
0.00269584
0.00268995
0.0026839
0.0026777
0.00267135
0.00266484
0.00265818
0.00265137
0.0026444
0.00263727
0.00262998
0.00262253
0.00261492
0.00260715
0.00259922
0.00259112
0.00258286
0.00257443
0.00256583
0.00255706
0.00254812
0.00253902
0.00252973
0.00252028
0.00251065
0.00250084
0.00249086
0.0024807
0.00247036
0.00245983
0.00244913
0.00243824
0.00242716
0.0024159
0.00240444
0.0023928
0.00238097
0.00236895
0.00235673
0.00234431
0.0023317
0.00231889
0.00230588
0.00229267
0.00227925
0.00226564
0.00225181
0.00223778
0.00222353
0.00220908
0.00219441
0.00217953
0.00216443
0.00214911
0.00213358
0.00211782
0.00210184
0.00208564
0.0020692
0.00205254
0.00203565
0.00201852
0.00200116
0.00198357
0.00196573
0.00194766
0.00192934
0.00191078
0.00189197
0.00187292
0.00185361
0.00183405
0.00181423
0.00179416
0.00177383
0.00175323
0.00173237
0.00171125
0.00168985
0.00166819
0.00164625
0.00162403
0.00160153
0.00157876
0.00155569
0.00153234
0.0015087
0.00148477
0.00146054
0.00143602
0.00141119
0.00138605
0.00136061
0.00133486
0.00130879
0.0012824
0.00125569
0.00122865
0.00120129
0.00117359
0.00114555
0.00111717
0.00108844
0.00105936
0.00102992
0.00100012
0.00096995
0.000939406
0.000908482
0.00087717
0.000845464
0.000813356
0.000780836
0.000747896
0.000714527
0.000680717
0.000646454
0.000611725
0.000576515
0.000540809
0.000504588
0.000467831
0.000430516
0.000392617
0.000354105
0.00031495
0.000275121
0.000234597
0.000193381
0.000151557
0.000109461
6.83017e-05
3.25787e-05
1.41029e-05
)
;

boundaryField
{
    top_wall
    {
        type            nutLowReWallFunction;
        value           uniform 0;
    }
    inlet
    {
        type            cyclic;
    }
    bot_wall
    {
        type            nutLowReWallFunction;
        value           uniform 0;
    }
    outlet
    {
        type            cyclic;
    }
    frontAndBack
    {
        type            empty;
    }
}


// ************************************************************************* //
