/*--------------------------------*- C++ -*----------------------------------*\
| =========                 |                                                 |
| \\      /  F ield         | OpenFOAM: The Open Source CFD Toolbox           |
|  \\    /   O peration     | Version:  2312                                  |
|   \\  /    A nd           | Website:  www.openfoam.com                      |
|    \\/     M anipulation  |                                                 |
\*---------------------------------------------------------------------------*/
FoamFile
{
    version     2.0;
    format      ascii;
    arch        "LSB;label=32;scalar=64";
    class       volScalarField;
    location    "24.405";
    object      k;
}
// * * * * * * * * * * * * * * * * * * * * * * * * * * * * * * * * * * * * * //

dimensions      [0 2 -2 0 0 0 0];

internalField   nonuniform List<scalar> 
1000
(
0.00404878
0.00375228
0.0221053
0.0736442
0.15773
0.250324
0.331248
0.395279
0.444445
0.482177
0.511436
0.534435
0.552764
0.567557
0.579629
0.589575
0.597834
0.604737
0.610536
0.615427
0.619562
0.623063
0.626026
0.628531
0.630641
0.632411
0.633883
0.635096
0.63608
0.636862
0.637464
0.637906
0.638205
0.638375
0.638429
0.638378
0.638231
0.637999
0.637687
0.637302
0.636852
0.636341
0.635773
0.635154
0.634487
0.633776
0.633024
0.632234
0.631408
0.63055
0.62966
0.628741
0.627796
0.626825
0.62583
0.624813
0.623774
0.622716
0.62164
0.620545
0.619434
0.618307
0.617165
0.616009
0.61484
0.613657
0.612463
0.611257
0.61004
0.608813
0.607575
0.606329
0.605073
0.603808
0.602535
0.601254
0.599965
0.59867
0.597367
0.596057
0.594741
0.593419
0.592091
0.590758
0.589418
0.588074
0.586724
0.58537
0.58401
0.582647
0.581278
0.579906
0.578529
0.577149
0.575765
0.574377
0.572985
0.57159
0.570192
0.56879
0.567386
0.565978
0.564567
0.563154
0.561737
0.560318
0.558897
0.557473
0.556046
0.554617
0.553186
0.551753
0.550317
0.548879
0.54744
0.545998
0.544554
0.543109
0.541661
0.540212
0.538761
0.537309
0.535855
0.534399
0.532942
0.531483
0.530023
0.528561
0.527098
0.525634
0.524169
0.522702
0.521234
0.519765
0.518295
0.516823
0.515351
0.513877
0.512403
0.510927
0.509451
0.507974
0.506496
0.505017
0.503537
0.502057
0.500575
0.499093
0.497611
0.496127
0.494643
0.493159
0.491674
0.490188
0.488702
0.487215
0.485728
0.48424
0.482752
0.481264
0.479775
0.478286
0.476796
0.475306
0.473816
0.472326
0.470836
0.469345
0.467854
0.466363
0.464872
0.463381
0.461889
0.460398
0.458907
0.457415
0.455924
0.454432
0.452941
0.45145
0.449959
0.448468
0.446977
0.445487
0.443997
0.442506
0.441017
0.439527
0.438038
0.436549
0.43506
0.433572
0.432084
0.430597
0.42911
0.427623
0.426137
0.424652
0.423167
0.421682
0.420199
0.418715
0.417233
0.415751
0.41427
0.412789
0.411309
0.40983
0.408352
0.406874
0.405398
0.403922
0.402447
0.400973
0.3995
0.398027
0.396556
0.395086
0.393616
0.392148
0.390681
0.389215
0.38775
0.386286
0.384823
0.383361
0.381901
0.380442
0.378984
0.377527
0.376072
0.374618
0.373165
0.371714
0.370264
0.368815
0.367368
0.365923
0.364479
0.363036
0.361595
0.360155
0.358717
0.357281
0.355846
0.354413
0.352982
0.351552
0.350125
0.348698
0.347274
0.345852
0.344431
0.343012
0.341595
0.34018
0.338767
0.337356
0.335947
0.33454
0.333135
0.331732
0.330331
0.328932
0.327535
0.326141
0.324748
0.323358
0.32197
0.320585
0.319201
0.31782
0.316442
0.315065
0.313692
0.31232
0.310951
0.309585
0.308221
0.306859
0.3055
0.304144
0.30279
0.301439
0.300091
0.298745
0.297402
0.296061
0.294724
0.293389
0.292057
0.290728
0.289402
0.288079
0.286758
0.285441
0.284126
0.282815
0.281506
0.280201
0.278899
0.2776
0.276304
0.275011
0.273721
0.272435
0.271152
0.269872
0.268595
0.267322
0.266052
0.264786
0.263523
0.262263
0.261007
0.259754
0.258505
0.25726
0.256018
0.25478
0.253545
0.252314
0.251087
0.249863
0.248643
0.247428
0.246215
0.245007
0.243803
0.242602
0.241406
0.240213
0.239025
0.23784
0.236659
0.235483
0.234311
0.233143
0.231979
0.230819
0.229664
0.228512
0.227365
0.226223
0.225085
0.223951
0.222822
0.221697
0.220576
0.21946
0.218349
0.217242
0.21614
0.215043
0.21395
0.212862
0.211779
0.2107
0.209627
0.208558
0.207494
0.206435
0.205381
0.204332
0.203288
0.202249
0.201215
0.200186
0.199162
0.198144
0.197131
0.196123
0.19512
0.194123
0.193131
0.192144
0.191163
0.190188
0.189218
0.188253
0.187294
0.186341
0.185393
0.184451
0.183515
0.182585
0.18166
0.180742
0.179829
0.178922
0.178021
0.177126
0.176237
0.175355
0.174478
0.173608
0.172743
0.171885
0.171034
0.170188
0.16935
0.168517
0.167691
0.166871
0.166058
0.165252
0.164452
0.163659
0.162872
0.162093
0.16132
0.160554
0.159794
0.159042
0.158297
0.157558
0.156827
0.156103
0.155386
0.154676
0.153973
0.153278
0.15259
0.151909
0.151236
0.15057
0.149912
0.149261
0.148618
0.147982
0.147354
0.146734
0.146122
0.145517
0.14492
0.144331
0.14375
0.143177
0.142612
0.142055
0.141506
0.140965
0.140433
0.139909
0.139392
0.138885
0.138385
0.137894
0.137412
0.136938
0.136472
0.136015
0.135567
0.135127
0.134696
0.134274
0.133861
0.133456
0.13306
0.132673
0.132295
0.131926
0.131566
0.131214
0.130872
0.130539
0.130215
0.129901
0.129595
0.129299
0.129012
0.128734
0.128465
0.128206
0.127956
0.127716
0.127485
0.127263
0.127051
0.126849
0.126656
0.126472
0.126298
0.126133
0.125978
0.125833
0.125697
0.125571
0.125455
0.125348
0.125251
0.125163
0.125086
0.125018
0.124959
0.124911
0.124872
0.124843
0.124823
0.124813
0.124813
0.124823
0.124843
0.124872
0.124911
0.124959
0.125018
0.125086
0.125163
0.125251
0.125348
0.125455
0.125571
0.125697
0.125833
0.125978
0.126133
0.126298
0.126472
0.126656
0.126849
0.127051
0.127263
0.127485
0.127716
0.127956
0.128206
0.128465
0.128734
0.129012
0.129299
0.129595
0.129901
0.130215
0.130539
0.130872
0.131214
0.131566
0.131926
0.132295
0.132673
0.13306
0.133456
0.133861
0.134274
0.134696
0.135127
0.135567
0.136015
0.136472
0.136938
0.137412
0.137894
0.138385
0.138885
0.139392
0.139908
0.140433
0.140965
0.141506
0.142055
0.142612
0.143177
0.14375
0.144331
0.14492
0.145517
0.146122
0.146734
0.147354
0.147982
0.148618
0.149261
0.149912
0.15057
0.151236
0.151909
0.15259
0.153278
0.153973
0.154676
0.155386
0.156103
0.156827
0.157558
0.158297
0.159042
0.159794
0.160554
0.16132
0.162093
0.162872
0.163659
0.164452
0.165252
0.166058
0.166871
0.167691
0.168517
0.169349
0.170188
0.171034
0.171885
0.172743
0.173608
0.174478
0.175355
0.176237
0.177126
0.178021
0.178922
0.179829
0.180742
0.18166
0.182585
0.183515
0.184451
0.185393
0.186341
0.187294
0.188253
0.189218
0.190188
0.191163
0.192144
0.193131
0.194123
0.19512
0.196123
0.197131
0.198144
0.199162
0.200186
0.201215
0.202249
0.203288
0.204332
0.205381
0.206435
0.207494
0.208558
0.209627
0.2107
0.211779
0.212862
0.21395
0.215043
0.21614
0.217242
0.218349
0.21946
0.220576
0.221697
0.222822
0.223951
0.225085
0.226223
0.227365
0.228512
0.229664
0.230819
0.231979
0.233143
0.234311
0.235483
0.236659
0.23784
0.239025
0.240213
0.241406
0.242602
0.243803
0.245007
0.246215
0.247428
0.248643
0.249863
0.251087
0.252314
0.253545
0.25478
0.256018
0.25726
0.258505
0.259754
0.261007
0.262263
0.263523
0.264786
0.266052
0.267322
0.268595
0.269872
0.271152
0.272435
0.273721
0.275011
0.276304
0.2776
0.278899
0.280201
0.281506
0.282815
0.284126
0.285441
0.286758
0.288079
0.289402
0.290728
0.292057
0.293389
0.294724
0.296061
0.297402
0.298745
0.300091
0.301439
0.30279
0.304144
0.3055
0.306859
0.308221
0.309585
0.310951
0.31232
0.313692
0.315066
0.316442
0.31782
0.319201
0.320585
0.32197
0.323358
0.324748
0.326141
0.327535
0.328932
0.330331
0.331732
0.333135
0.33454
0.335947
0.337356
0.338767
0.34018
0.341595
0.343012
0.344431
0.345852
0.347274
0.348698
0.350125
0.351552
0.352982
0.354413
0.355846
0.357281
0.358717
0.360155
0.361595
0.363036
0.364479
0.365923
0.367368
0.368815
0.370264
0.371714
0.373165
0.374618
0.376072
0.377527
0.378984
0.380442
0.381901
0.383361
0.384823
0.386286
0.38775
0.389215
0.390681
0.392148
0.393616
0.395086
0.396556
0.398027
0.3995
0.400973
0.402447
0.403922
0.405398
0.406874
0.408352
0.40983
0.411309
0.412789
0.41427
0.415751
0.417233
0.418715
0.420199
0.421682
0.423167
0.424652
0.426137
0.427623
0.42911
0.430597
0.432084
0.433572
0.43506
0.436549
0.438038
0.439527
0.441017
0.442506
0.443997
0.445487
0.446977
0.448468
0.449959
0.45145
0.452941
0.454432
0.455924
0.457415
0.458907
0.460398
0.461889
0.463381
0.464872
0.466363
0.467854
0.469345
0.470836
0.472326
0.473816
0.475306
0.476796
0.478286
0.479775
0.481264
0.482752
0.48424
0.485728
0.487215
0.488702
0.490188
0.491674
0.493159
0.494643
0.496127
0.497611
0.499093
0.500575
0.502057
0.503537
0.505017
0.506496
0.507974
0.509451
0.510927
0.512403
0.513877
0.515351
0.516823
0.518295
0.519765
0.521234
0.522702
0.524169
0.525634
0.527098
0.528561
0.530023
0.531483
0.532942
0.534399
0.535855
0.537309
0.538761
0.540212
0.541661
0.543109
0.544554
0.545998
0.54744
0.548879
0.550317
0.551753
0.553186
0.554617
0.556046
0.557473
0.558897
0.560318
0.561737
0.563154
0.564567
0.565978
0.567386
0.56879
0.570192
0.57159
0.572985
0.574377
0.575765
0.577149
0.578529
0.579906
0.581278
0.582647
0.58401
0.58537
0.586724
0.588074
0.589418
0.590758
0.592091
0.593419
0.594741
0.596057
0.597367
0.59867
0.599966
0.601254
0.602535
0.603808
0.605073
0.606329
0.607575
0.608813
0.61004
0.611257
0.612463
0.613657
0.61484
0.616009
0.617165
0.618307
0.619434
0.620545
0.62164
0.622716
0.623775
0.624813
0.62583
0.626825
0.627796
0.628741
0.62966
0.63055
0.631409
0.632234
0.633024
0.633776
0.634488
0.635154
0.635773
0.636341
0.636852
0.637302
0.637687
0.637999
0.638232
0.638378
0.638429
0.638375
0.638205
0.637906
0.637464
0.636862
0.63608
0.635096
0.633883
0.632411
0.630641
0.628531
0.626026
0.623063
0.619562
0.615427
0.610537
0.604737
0.597834
0.589575
0.579629
0.567557
0.552764
0.534435
0.511436
0.482177
0.444445
0.395279
0.331248
0.250324
0.15773
0.0736443
0.0221053
0.00375228
0.00404878
)
;

boundaryField
{
    top_wall
    {
        type            kLowReWallFunction;
        value           uniform 5.43475e-07;
    }
    inlet
    {
        type            cyclic;
    }
    bot_wall
    {
        type            kLowReWallFunction;
        value           uniform 5.43475e-07;
    }
    outlet
    {
        type            cyclic;
    }
    frontAndBack
    {
        type            empty;
    }
}


// ************************************************************************* //
