/*--------------------------------*- C++ -*----------------------------------*\
| =========                 |                                                 |
| \\      /  F ield         | OpenFOAM: The Open Source CFD Toolbox           |
|  \\    /   O peration     | Version:  2312                                  |
|   \\  /    A nd           | Website:  www.openfoam.com                      |
|    \\/     M anipulation  |                                                 |
\*---------------------------------------------------------------------------*/
FoamFile
{
    version     2.0;
    format      ascii;
    arch        "LSB;label=32;scalar=64";
    class       volScalarField;
    location    "24.405";
    object      nut;
}
// * * * * * * * * * * * * * * * * * * * * * * * * * * * * * * * * * * * * * //

dimensions      [0 2 -1 0 0 0 0];

internalField   nonuniform List<scalar> 
1000
(
2.08783e-09
1.09517e-08
1.80054e-07
1.1321e-06
3.67384e-06
7.90939e-06
1.33891e-05
1.96803e-05
2.65045e-05
3.36924e-05
4.11373e-05
4.87686e-05
5.65376e-05
6.4409e-05
7.23568e-05
8.03612e-05
8.84067e-05
9.64811e-05
0.000104575
0.000112679
0.000120789
0.000128897
0.000137
0.000145093
0.000153174
0.000161239
0.000169286
0.000177313
0.000185318
0.000193299
0.000201255
0.000209185
0.000217088
0.000224962
0.000232807
0.000240622
0.000248406
0.000256159
0.00026388
0.000271568
0.000279224
0.000286846
0.000294435
0.00030199
0.00030951
0.000316996
0.000324447
0.000331864
0.000339245
0.000346591
0.000353902
0.000361177
0.000368416
0.000375619
0.000382787
0.000389919
0.000397014
0.000404074
0.000411097
0.000418084
0.000425035
0.00043195
0.000438829
0.000445671
0.000452477
0.000459247
0.00046598
0.000472677
0.000479338
0.000485963
0.000492551
0.000499104
0.00050562
0.0005121
0.000518544
0.000524952
0.000531324
0.00053766
0.00054396
0.000550224
0.000556453
0.000562646
0.000568803
0.000574924
0.00058101
0.00058706
0.000593075
0.000599054
0.000604998
0.000610907
0.00061678
0.000622618
0.000628422
0.00063419
0.000639923
0.000645622
0.000651285
0.000656914
0.000662509
0.000668068
0.000673594
0.000679084
0.000684541
0.000689963
0.000695351
0.000700705
0.000706025
0.000711311
0.000716564
0.000721782
0.000726967
0.000732118
0.000737235
0.00074232
0.00074737
0.000752388
0.000757372
0.000762324
0.000767242
0.000772127
0.00077698
0.000781799
0.000786587
0.000791341
0.000796063
0.000800753
0.00080541
0.000810035
0.000814628
0.000819189
0.000823718
0.000828215
0.000832681
0.000837114
0.000841516
0.000845887
0.000850226
0.000854534
0.000858811
0.000863056
0.00086727
0.000871454
0.000875607
0.000879728
0.00088382
0.00088788
0.00089191
0.00089591
0.000899879
0.000903818
0.000907727
0.000911606
0.000915455
0.000919274
0.000923064
0.000926823
0.000930553
0.000934254
0.000937925
0.000941567
0.00094518
0.000948763
0.000952318
0.000955843
0.00095934
0.000962808
0.000966247
0.000969658
0.00097304
0.000976394
0.000979719
0.000983016
0.000986285
0.000989527
0.00099274
0.000995925
0.000999083
0.00100221
0.00100531
0.00100839
0.00101144
0.00101446
0.00101745
0.00102042
0.00102335
0.00102627
0.00102915
0.00103201
0.00103484
0.00103764
0.00104042
0.00104317
0.0010459
0.0010486
0.00105127
0.00105392
0.00105654
0.00105913
0.0010617
0.00106425
0.00106676
0.00106926
0.00107172
0.00107416
0.00107658
0.00107897
0.00108134
0.00108368
0.00108599
0.00108828
0.00109055
0.00109279
0.00109501
0.0010972
0.00109936
0.00110151
0.00110363
0.00110572
0.00110779
0.00110984
0.00111186
0.00111386
0.00111583
0.00111778
0.00111971
0.00112161
0.00112349
0.00112535
0.00112718
0.00112899
0.00113078
0.00113254
0.00113428
0.001136
0.00113769
0.00113937
0.00114102
0.00114264
0.00114425
0.00114583
0.00114739
0.00114892
0.00115044
0.00115193
0.0011534
0.00115485
0.00115627
0.00115768
0.00115906
0.00116042
0.00116176
0.00116307
0.00116437
0.00116564
0.0011669
0.00116813
0.00116934
0.00117053
0.00117169
0.00117284
0.00117397
0.00117507
0.00117615
0.00117722
0.00117826
0.00117928
0.00118028
0.00118126
0.00118222
0.00118316
0.00118408
0.00118498
0.00118586
0.00118672
0.00118756
0.00118838
0.00118918
0.00118996
0.00119072
0.00119146
0.00119218
0.00119288
0.00119356
0.00119423
0.00119487
0.00119549
0.0011961
0.00119668
0.00119725
0.0011978
0.00119833
0.00119884
0.00119933
0.0011998
0.00120025
0.00120069
0.0012011
0.0012015
0.00120188
0.00120224
0.00120259
0.00120291
0.00120322
0.00120351
0.00120378
0.00120403
0.00120427
0.00120448
0.00120468
0.00120487
0.00120503
0.00120518
0.00120531
0.00120542
0.00120551
0.00120559
0.00120565
0.0012057
0.00120572
0.00120573
0.00120573
0.0012057
0.00120566
0.00120561
0.00120553
0.00120544
0.00120534
0.00120522
0.00120508
0.00120492
0.00120475
0.00120457
0.00120436
0.00120415
0.00120391
0.00120366
0.0012034
0.00120312
0.00120282
0.00120251
0.00120218
0.00120184
0.00120149
0.00120112
0.00120073
0.00120033
0.00119992
0.00119949
0.00119904
0.00119859
0.00119811
0.00119763
0.00119713
0.00119661
0.00119609
0.00119555
0.00119499
0.00119442
0.00119384
0.00119325
0.00119264
0.00119202
0.00119139
0.00119074
0.00119009
0.00118942
0.00118873
0.00118804
0.00118733
0.00118662
0.00118589
0.00118514
0.00118439
0.00118363
0.00118285
0.00118207
0.00118127
0.00118047
0.00117965
0.00117882
0.00117799
0.00117714
0.00117628
0.00117542
0.00117454
0.00117366
0.00117276
0.00117186
0.00117095
0.00117003
0.0011691
0.00116817
0.00116723
0.00116628
0.00116532
0.00116436
0.00116338
0.00116241
0.00116142
0.00116043
0.00115944
0.00115844
0.00115743
0.00115642
0.0011554
0.00115438
0.00115335
0.00115232
0.00115129
0.00115025
0.00114921
0.00114817
0.00114712
0.00114607
0.00114502
0.00114397
0.00114292
0.00114186
0.00114081
0.00113975
0.0011387
0.00113764
0.00113658
0.00113553
0.00113448
0.00113342
0.00113237
0.00113132
0.00113028
0.00112923
0.00112819
0.00112716
0.00112612
0.00112509
0.00112407
0.00112305
0.00112204
0.00112103
0.00112002
0.00111903
0.00111804
0.00111705
0.00111608
0.00111511
0.00111415
0.0011132
0.00111226
0.00111133
0.00111041
0.00110949
0.00110859
0.0011077
0.00110682
0.00110595
0.00110509
0.00110425
0.00110342
0.0011026
0.00110179
0.001101
0.00110022
0.00109946
0.00109871
0.00109798
0.00109726
0.00109656
0.00109587
0.0010952
0.00109455
0.00109391
0.00109329
0.00109269
0.00109211
0.00109154
0.001091
0.00109047
0.00108996
0.00108947
0.001089
0.00108855
0.00108812
0.00108771
0.00108732
0.00108695
0.0010866
0.00108627
0.00108597
0.00108568
0.00108542
0.00108517
0.00108495
0.00108475
0.00108458
0.00108442
0.00108429
0.00108418
0.00108409
0.00108402
0.00108398
0.00108395
0.00108395
0.00108398
0.00108402
0.00108409
0.00108418
0.00108429
0.00108442
0.00108458
0.00108475
0.00108495
0.00108517
0.00108542
0.00108568
0.00108597
0.00108627
0.0010866
0.00108695
0.00108732
0.00108771
0.00108812
0.00108855
0.001089
0.00108947
0.00108996
0.00109047
0.001091
0.00109154
0.00109211
0.00109269
0.00109329
0.00109391
0.00109455
0.0010952
0.00109587
0.00109656
0.00109726
0.00109798
0.00109871
0.00109946
0.00110022
0.001101
0.00110179
0.0011026
0.00110342
0.00110425
0.00110509
0.00110595
0.00110682
0.0011077
0.00110859
0.00110949
0.00111041
0.00111133
0.00111226
0.0011132
0.00111415
0.00111511
0.00111608
0.00111705
0.00111804
0.00111903
0.00112002
0.00112103
0.00112203
0.00112305
0.00112407
0.00112509
0.00112612
0.00112716
0.00112819
0.00112923
0.00113028
0.00113132
0.00113237
0.00113342
0.00113448
0.00113553
0.00113658
0.00113764
0.0011387
0.00113975
0.00114081
0.00114186
0.00114292
0.00114397
0.00114502
0.00114607
0.00114712
0.00114817
0.00114921
0.00115025
0.00115129
0.00115232
0.00115335
0.00115438
0.0011554
0.00115642
0.00115743
0.00115844
0.00115944
0.00116043
0.00116142
0.00116241
0.00116338
0.00116436
0.00116532
0.00116628
0.00116723
0.00116817
0.0011691
0.00117003
0.00117095
0.00117186
0.00117276
0.00117366
0.00117454
0.00117542
0.00117628
0.00117714
0.00117799
0.00117882
0.00117965
0.00118047
0.00118127
0.00118207
0.00118285
0.00118363
0.00118439
0.00118514
0.00118589
0.00118662
0.00118733
0.00118804
0.00118873
0.00118942
0.00119009
0.00119074
0.00119139
0.00119202
0.00119264
0.00119325
0.00119384
0.00119442
0.00119499
0.00119555
0.00119609
0.00119661
0.00119713
0.00119763
0.00119811
0.00119859
0.00119904
0.00119949
0.00119992
0.00120033
0.00120073
0.00120112
0.00120149
0.00120184
0.00120218
0.00120251
0.00120282
0.00120312
0.0012034
0.00120366
0.00120391
0.00120415
0.00120436
0.00120457
0.00120475
0.00120492
0.00120508
0.00120522
0.00120534
0.00120544
0.00120553
0.00120561
0.00120566
0.0012057
0.00120573
0.00120573
0.00120572
0.0012057
0.00120565
0.00120559
0.00120551
0.00120542
0.00120531
0.00120518
0.00120503
0.00120487
0.00120468
0.00120448
0.00120427
0.00120403
0.00120378
0.00120351
0.00120322
0.00120291
0.00120259
0.00120224
0.00120188
0.0012015
0.0012011
0.00120069
0.00120025
0.0011998
0.00119933
0.00119884
0.00119833
0.0011978
0.00119725
0.00119668
0.0011961
0.00119549
0.00119487
0.00119423
0.00119356
0.00119288
0.00119218
0.00119146
0.00119072
0.00118996
0.00118918
0.00118838
0.00118756
0.00118672
0.00118586
0.00118498
0.00118408
0.00118316
0.00118222
0.00118126
0.00118028
0.00117928
0.00117826
0.00117722
0.00117615
0.00117507
0.00117397
0.00117284
0.00117169
0.00117053
0.00116934
0.00116813
0.0011669
0.00116564
0.00116437
0.00116307
0.00116176
0.00116042
0.00115906
0.00115768
0.00115627
0.00115485
0.0011534
0.00115193
0.00115044
0.00114892
0.00114739
0.00114583
0.00114425
0.00114264
0.00114102
0.00113937
0.00113769
0.001136
0.00113428
0.00113254
0.00113078
0.00112899
0.00112718
0.00112535
0.00112349
0.00112161
0.00111971
0.00111778
0.00111583
0.00111386
0.00111186
0.00110984
0.00110779
0.00110572
0.00110363
0.00110151
0.00109936
0.0010972
0.00109501
0.00109279
0.00109055
0.00108828
0.00108599
0.00108368
0.00108134
0.00107897
0.00107658
0.00107416
0.00107172
0.00106926
0.00106676
0.00106425
0.0010617
0.00105913
0.00105654
0.00105392
0.00105127
0.0010486
0.0010459
0.00104317
0.00104042
0.00103764
0.00103484
0.00103201
0.00102915
0.00102627
0.00102335
0.00102042
0.00101745
0.00101446
0.00101144
0.00100839
0.00100531
0.00100221
0.000999083
0.000995925
0.00099274
0.000989527
0.000986286
0.000983016
0.000979719
0.000976394
0.00097304
0.000969658
0.000966247
0.000962808
0.00095934
0.000955843
0.000952318
0.000948763
0.00094518
0.000941567
0.000937925
0.000934254
0.000930553
0.000926823
0.000923064
0.000919274
0.000915455
0.000911606
0.000907727
0.000903818
0.000899879
0.00089591
0.00089191
0.00088788
0.00088382
0.000879728
0.000875607
0.000871454
0.00086727
0.000863056
0.000858811
0.000854534
0.000850226
0.000845887
0.000841516
0.000837114
0.000832681
0.000828215
0.000823718
0.000819189
0.000814628
0.000810035
0.00080541
0.000800753
0.000796063
0.000791341
0.000786587
0.000781799
0.00077698
0.000772127
0.000767242
0.000762324
0.000757372
0.000752388
0.00074737
0.00074232
0.000737235
0.000732118
0.000726967
0.000721782
0.000716564
0.000711311
0.000706025
0.000700705
0.000695351
0.000689963
0.000684541
0.000679085
0.000673594
0.000668068
0.000662509
0.000656914
0.000651285
0.000645622
0.000639923
0.00063419
0.000628422
0.000622618
0.00061678
0.000610907
0.000604998
0.000599054
0.000593075
0.00058706
0.00058101
0.000574924
0.000568803
0.000562646
0.000556453
0.000550224
0.00054396
0.00053766
0.000531324
0.000524952
0.000518544
0.0005121
0.00050562
0.000499104
0.000492551
0.000485963
0.000479338
0.000472677
0.00046598
0.000459247
0.000452477
0.000445671
0.000438829
0.00043195
0.000425035
0.000418084
0.000411097
0.000404074
0.000397014
0.000389919
0.000382787
0.000375619
0.000368416
0.000361177
0.000353902
0.000346591
0.000339245
0.000331864
0.000324447
0.000316996
0.00030951
0.00030199
0.000294435
0.000286846
0.000279224
0.000271568
0.00026388
0.000256159
0.000248406
0.000240622
0.000232807
0.000224962
0.000217088
0.000209185
0.000201255
0.000193299
0.000185318
0.000177313
0.000169286
0.000161239
0.000153174
0.000145093
0.000137
0.000128897
0.000120789
0.000112679
0.000104575
9.64811e-05
8.84067e-05
8.03612e-05
7.23568e-05
6.4409e-05
5.65376e-05
4.87686e-05
4.11373e-05
3.36924e-05
2.65045e-05
1.96803e-05
1.33891e-05
7.90939e-06
3.67384e-06
1.1321e-06
1.80054e-07
1.09517e-08
2.08783e-09
)
;

boundaryField
{
    top_wall
    {
        type            nutLowReWallFunction;
        value           uniform 0;
    }
    inlet
    {
        type            cyclic;
    }
    bot_wall
    {
        type            nutLowReWallFunction;
        value           uniform 0;
    }
    outlet
    {
        type            cyclic;
    }
    frontAndBack
    {
        type            empty;
    }
}


// ************************************************************************* //
