/*--------------------------------*- C++ -*----------------------------------*\
| =========                 |                                                 |
| \\      /  F ield         | OpenFOAM: The Open Source CFD Toolbox           |
|  \\    /   O peration     | Version:  2312                                  |
|   \\  /    A nd           | Website:  www.openfoam.com                      |
|    \\/     M anipulation  |                                                 |
\*---------------------------------------------------------------------------*/
FoamFile
{
    version     2.0;
    format      ascii;
    arch        "LSB;label=32;scalar=64";
    class       volVectorField;
    location    "24.405";
    object      U;
}
// * * * * * * * * * * * * * * * * * * * * * * * * * * * * * * * * * * * * * //

dimensions      [0 1 -1 0 0 0 0];

internalField   nonuniform List<vector> 
1000
(
(0.36763 -3.24241e-18 0)
(1.10111 -7.2791e-18 0)
(1.82885 -7.06921e-18 0)
(2.52937 -6.72028e-18 0)
(3.15891 -6.62394e-18 0)
(3.68552 -6.62837e-18 0)
(4.11211 -6.62839e-18 0)
(4.45877 -6.63102e-18 0)
(4.7454 -6.6435e-18 0)
(4.98716 -6.65629e-18 0)
(5.19484 -6.67074e-18 0)
(5.37611 -6.669e-18 0)
(5.53647 -6.65559e-18 0)
(5.67995 -6.64508e-18 0)
(5.80957 -6.63524e-18 0)
(5.92766 -6.62582e-18 0)
(6.036 -6.61785e-18 0)
(6.13602 -6.60874e-18 0)
(6.22886 -6.59562e-18 0)
(6.31545 -6.58753e-18 0)
(6.39654 -6.61255e-18 0)
(6.47278 -6.63802e-18 0)
(6.5447 -6.63964e-18 0)
(6.61275 -6.63093e-18 0)
(6.67731 -6.62635e-18 0)
(6.73872 -6.63455e-18 0)
(6.79727 -6.6465e-18 0)
(6.8532 -6.66996e-18 0)
(6.90673 -6.71434e-18 0)
(6.95807 -6.75972e-18 0)
(7.00737 -6.78989e-18 0)
(7.0548 -6.81816e-18 0)
(7.10049 -6.82273e-18 0)
(7.14455 -6.82423e-18 0)
(7.18711 -6.84116e-18 0)
(7.22825 -6.85241e-18 0)
(7.26808 -6.8675e-18 0)
(7.30666 -6.86931e-18 0)
(7.34408 -6.87251e-18 0)
(7.38041 -6.88639e-18 0)
(7.41569 -6.89234e-18 0)
(7.45 -6.89639e-18 0)
(7.48339 -6.89861e-18 0)
(7.51589 -6.89911e-18 0)
(7.54757 -6.89862e-18 0)
(7.57845 -6.89424e-18 0)
(7.60858 -6.88639e-18 0)
(7.63799 -6.87792e-18 0)
(7.66672 -6.87468e-18 0)
(7.6948 -6.87958e-18 0)
(7.72226 -6.88675e-18 0)
(7.74911 -6.89062e-18 0)
(7.7754 -6.89166e-18 0)
(7.80114 -6.89018e-18 0)
(7.82635 -6.88328e-18 0)
(7.85106 -6.87133e-18 0)
(7.87529 -6.85413e-18 0)
(7.89905 -6.83456e-18 0)
(7.92236 -6.81566e-18 0)
(7.94524 -6.79716e-18 0)
(7.96771 -6.77905e-18 0)
(7.98977 -6.76133e-18 0)
(8.01145 -6.74398e-18 0)
(8.03275 -6.72699e-18 0)
(8.05369 -6.71034e-18 0)
(8.07429 -6.69403e-18 0)
(8.09455 -6.67804e-18 0)
(8.11448 -6.66236e-18 0)
(8.13409 -6.64698e-18 0)
(8.1534 -6.63189e-18 0)
(8.17241 -6.61707e-18 0)
(8.19113 -6.60252e-18 0)
(8.20958 -6.58823e-18 0)
(8.22775 -6.57419e-18 0)
(8.24566 -6.56039e-18 0)
(8.26332 -6.54682e-18 0)
(8.28072 -6.53347e-18 0)
(8.29789 -6.52033e-18 0)
(8.31482 -6.50739e-18 0)
(8.33152 -6.49464e-18 0)
(8.348 -6.48207e-18 0)
(8.36426 -6.46967e-18 0)
(8.38031 -6.45743e-18 0)
(8.39616 -6.44532e-18 0)
(8.4118 -6.43335e-18 0)
(8.42725 -6.42148e-18 0)
(8.44251 -6.4097e-18 0)
(8.45758 -6.39799e-18 0)
(8.47247 -6.38634e-18 0)
(8.48719 -6.37472e-18 0)
(8.50173 -6.36311e-18 0)
(8.5161 -6.35149e-18 0)
(8.53031 -6.33985e-18 0)
(8.54435 -6.32816e-18 0)
(8.55824 -6.31649e-18 0)
(8.57197 -6.30481e-18 0)
(8.58555 -6.29312e-18 0)
(8.59898 -6.28142e-18 0)
(8.61227 -6.26971e-18 0)
(8.62542 -6.258e-18 0)
(8.63843 -6.24633e-18 0)
(8.6513 -6.23464e-18 0)
(8.66404 -6.22297e-18 0)
(8.67665 -6.21134e-18 0)
(8.68913 -6.19964e-18 0)
(8.70148 -6.19086e-18 0)
(8.71372 -6.18605e-18 0)
(8.72583 -6.16783e-18 0)
(8.73782 -6.12168e-18 0)
(8.7497 -6.07342e-18 0)
(8.76147 -6.05166e-18 0)
(8.77312 -6.04425e-18 0)
(8.78466 -6.03384e-18 0)
(8.7961 -6.02177e-18 0)
(8.80743 -6.01142e-18 0)
(8.81865 -6.00303e-18 0)
(8.82978 -5.99726e-18 0)
(8.8408 -5.99485e-18 0)
(8.85172 -5.99766e-18 0)
(8.86255 -5.99488e-18 0)
(8.87329 -6.00154e-18 0)
(8.88393 -6.0087e-18 0)
(8.89447 -6.00783e-18 0)
(8.90493 -6.01353e-18 0)
(8.9153 -6.01507e-18 0)
(8.92558 -6.01425e-18 0)
(8.93577 -6.01186e-18 0)
(8.94588 -6.00866e-18 0)
(8.9559 -6.00535e-18 0)
(8.96585 -6.00266e-18 0)
(8.97571 -6.00277e-18 0)
(8.98549 -5.98664e-18 0)
(8.9952 -5.96797e-18 0)
(9.00482 -5.95026e-18 0)
(9.01437 -5.93707e-18 0)
(9.02385 -5.94263e-18 0)
(9.03325 -5.93062e-18 0)
(9.04258 -5.88769e-18 0)
(9.05183 -5.84905e-18 0)
(9.06102 -5.84632e-18 0)
(9.07014 -5.86238e-18 0)
(9.07918 -5.8629e-18 0)
(9.08816 -5.83407e-18 0)
(9.09707 -5.8076e-18 0)
(9.10592 -5.81175e-18 0)
(9.1147 -5.83116e-18 0)
(9.12342 -5.84849e-18 0)
(9.13207 -5.8623e-18 0)
(9.14066 -5.8642e-18 0)
(9.14919 -5.85247e-18 0)
(9.15765 -5.83961e-18 0)
(9.16606 -5.8382e-18 0)
(9.17441 -5.8432e-18 0)
(9.1827 -5.84288e-18 0)
(9.19093 -5.83713e-18 0)
(9.1991 -5.82775e-18 0)
(9.20722 -5.81741e-18 0)
(9.21528 -5.79297e-18 0)
(9.22329 -5.77201e-18 0)
(9.23124 -5.73539e-18 0)
(9.23913 -5.69785e-18 0)
(9.24698 -5.66084e-18 0)
(9.25477 -5.62972e-18 0)
(9.26251 -5.61494e-18 0)
(9.2702 -5.57843e-18 0)
(9.27783 -5.52359e-18 0)
(9.28542 -5.45345e-18 0)
(9.29296 -5.35457e-18 0)
(9.30045 -5.27673e-18 0)
(9.30789 -5.25034e-18 0)
(9.31528 -5.20802e-18 0)
(9.32262 -5.14794e-18 0)
(9.32992 -5.09202e-18 0)
(9.33717 -5.05732e-18 0)
(9.34437 -5.03953e-18 0)
(9.35153 -5.00953e-18 0)
(9.35864 -4.9667e-18 0)
(9.36571 -4.93107e-18 0)
(9.37274 -4.89923e-18 0)
(9.37972 -4.83141e-18 0)
(9.38666 -4.78044e-18 0)
(9.39355 -4.77548e-18 0)
(9.4004 -4.74802e-18 0)
(9.40721 -4.69651e-18 0)
(9.41398 -4.64188e-18 0)
(9.42071 -4.60474e-18 0)
(9.4274 -4.58508e-18 0)
(9.43404 -4.55077e-18 0)
(9.44065 -4.50096e-18 0)
(9.44722 -4.45589e-18 0)
(9.45375 -4.41277e-18 0)
(9.46023 -4.36889e-18 0)
(9.46668 -4.34051e-18 0)
(9.4731 -4.32594e-18 0)
(9.47947 -4.28076e-18 0)
(9.48581 -4.21575e-18 0)
(9.49211 -4.16168e-18 0)
(9.49837 -4.12441e-18 0)
(9.5046 -4.0986e-18 0)
(9.51079 -4.03354e-18 0)
(9.51694 -3.94604e-18 0)
(9.52306 -3.90877e-18 0)
(9.52914 -3.89323e-18 0)
(9.53519 -3.86288e-18 0)
(9.5412 -3.83891e-18 0)
(9.54718 -3.80061e-18 0)
(9.55313 -3.74227e-18 0)
(9.55904 -3.68781e-18 0)
(9.56492 -3.61012e-18 0)
(9.57076 -3.53726e-18 0)
(9.57657 -3.44156e-18 0)
(9.58235 -3.32691e-18 0)
(9.5881 -3.26418e-18 0)
(9.59381 -3.24012e-18 0)
(9.5995 -3.23098e-18 0)
(9.60515 -3.21397e-18 0)
(9.61076 -3.17742e-18 0)
(9.61635 -3.12137e-18 0)
(9.62191 -3.09124e-18 0)
(9.62743 -3.08466e-18 0)
(9.63293 -3.07692e-18 0)
(9.63839 -3.05411e-18 0)
(9.64383 -3.01347e-18 0)
(9.64923 -2.99503e-18 0)
(9.65461 -2.97277e-18 0)
(9.65996 -2.94618e-18 0)
(9.66527 -2.93676e-18 0)
(9.67056 -2.92036e-18 0)
(9.67582 -2.88209e-18 0)
(9.68105 -2.81951e-18 0)
(9.68625 -2.77475e-18 0)
(9.69142 -2.7489e-18 0)
(9.69657 -2.72057e-18 0)
(9.70169 -2.66151e-18 0)
(9.70678 -2.58329e-18 0)
(9.71184 -2.5198e-18 0)
(9.71687 -2.47521e-18 0)
(9.72188 -2.44609e-18 0)
(9.72686 -2.4303e-18 0)
(9.73181 -2.39413e-18 0)
(9.73674 -2.34277e-18 0)
(9.74164 -2.29118e-18 0)
(9.74652 -2.25105e-18 0)
(9.75136 -2.22374e-18 0)
(9.75619 -2.17887e-18 0)
(9.76098 -2.153e-18 0)
(9.76575 -2.10872e-18 0)
(9.7705 -2.03976e-18 0)
(9.77522 -1.98807e-18 0)
(9.77991 -1.93062e-18 0)
(9.78458 -1.8853e-18 0)
(9.78923 -1.84246e-18 0)
(9.79385 -1.78759e-18 0)
(9.79844 -1.67076e-18 0)
(9.80301 -1.53637e-18 0)
(9.80756 -1.48919e-18 0)
(9.81208 -1.48096e-18 0)
(9.81658 -1.41019e-18 0)
(9.82105 -1.31141e-18 0)
(9.82551 -1.24922e-18 0)
(9.82993 -1.22487e-18 0)
(9.83433 -1.23782e-18 0)
(9.83871 -1.20294e-18 0)
(9.84307 -1.11542e-18 0)
(9.8474 -1.03753e-18 0)
(9.85171 -1.0095e-18 0)
(9.856 -1.0126e-18 0)
(9.86027 -9.97556e-19 0)
(9.86451 -9.48612e-19 0)
(9.86873 -8.79691e-19 0)
(9.87292 -8.24953e-19 0)
(9.8771 -7.81368e-19 0)
(9.88125 -7.3394e-19 0)
(9.88538 -6.7339e-19 0)
(9.88948 -6.00207e-19 0)
(9.89357 -5.46577e-19 0)
(9.89763 -5.12393e-19 0)
(9.90168 -4.9571e-19 0)
(9.9057 -4.96584e-19 0)
(9.90969 -4.80621e-19 0)
(9.91367 -4.42019e-19 0)
(9.91763 -3.98292e-19 0)
(9.92156 -3.69751e-19 0)
(9.92547 -3.57081e-19 0)
(9.92937 -3.45374e-19 0)
(9.93324 -3.1329e-19 0)
(9.93709 -2.57625e-19 0)
(9.94092 -2.0216e-19 0)
(9.94473 -1.74428e-19 0)
(9.94851 -1.66915e-19 0)
(9.95228 -1.56044e-19 0)
(9.95603 -1.30179e-19 0)
(9.95976 -8.61488e-20 0)
(9.96346 -9.14898e-21 0)
(9.96715 4.7772e-20 0)
(9.97082 5.35714e-20 0)
(9.97446 8.18178e-20 0)
(9.97809 1.29629e-19 0)
(9.98169 1.76648e-19 0)
(9.98528 2.23812e-19 0)
(9.98885 2.71861e-19 0)
(9.99239 3.02946e-19 0)
(9.99592 3.15982e-19 0)
(9.99943 3.47876e-19 0)
(10.0029 4.02342e-19 0)
(10.0064 4.64038e-19 0)
(10.0098 5.06138e-19 0)
(10.0133 5.24281e-19 0)
(10.0167 5.95158e-19 0)
(10.0201 7.31285e-19 0)
(10.0234 8.34218e-19 0)
(10.0268 9.05053e-19 0)
(10.0301 9.49735e-19 0)
(10.0334 9.42281e-19 0)
(10.0367 9.23045e-19 0)
(10.04 9.06958e-19 0)
(10.0433 8.92375e-19 0)
(10.0465 8.79187e-19 0)
(10.0497 8.67168e-19 0)
(10.0529 8.56037e-19 0)
(10.0561 8.45493e-19 0)
(10.0593 8.35311e-19 0)
(10.0624 8.25299e-19 0)
(10.0656 8.15313e-19 0)
(10.0687 8.05284e-19 0)
(10.0718 7.95163e-19 0)
(10.0749 7.84909e-19 0)
(10.0779 7.74517e-19 0)
(10.0809 7.64013e-19 0)
(10.084 7.53409e-19 0)
(10.087 7.42718e-19 0)
(10.09 7.31974e-19 0)
(10.0929 7.21189e-19 0)
(10.0959 7.10394e-19 0)
(10.0988 6.99596e-19 0)
(10.1017 6.88818e-19 0)
(10.1046 6.78081e-19 0)
(10.1075 6.67401e-19 0)
(10.1104 6.56794e-19 0)
(10.1132 6.46271e-19 0)
(10.116 6.35825e-19 0)
(10.1188 6.25466e-19 0)
(10.1216 6.15203e-19 0)
(10.1244 6.05043e-19 0)
(10.1271 5.94992e-19 0)
(10.1299 5.85054e-19 0)
(10.1326 5.75235e-19 0)
(10.1353 5.65536e-19 0)
(10.138 5.5596e-19 0)
(10.1407 5.46509e-19 0)
(10.1433 5.37183e-19 0)
(10.1459 5.27983e-19 0)
(10.1486 5.1891e-19 0)
(10.1512 5.09964e-19 0)
(10.1537 5.01144e-19 0)
(10.1563 4.92449e-19 0)
(10.1589 4.83878e-19 0)
(10.1614 4.75431e-19 0)
(10.1639 4.67105e-19 0)
(10.1664 4.589e-19 0)
(10.1689 4.50813e-19 0)
(10.1713 4.42844e-19 0)
(10.1738 4.34989e-19 0)
(10.1762 4.27248e-19 0)
(10.1786 4.19618e-19 0)
(10.181 4.12097e-19 0)
(10.1834 4.04684e-19 0)
(10.1858 3.97376e-19 0)
(10.1881 3.90172e-19 0)
(10.1904 3.83069e-19 0)
(10.1927 3.76066e-19 0)
(10.195 3.6916e-19 0)
(10.1973 3.62351e-19 0)
(10.1996 3.55636e-19 0)
(10.2018 3.49013e-19 0)
(10.204 3.42498e-19 0)
(10.2063 3.36092e-19 0)
(10.2084 3.29771e-19 0)
(10.2106 3.23534e-19 0)
(10.2128 3.17397e-19 0)
(10.2149 3.11359e-19 0)
(10.217 3.05418e-19 0)
(10.2192 2.99574e-19 0)
(10.2212 2.93805e-19 0)
(10.2233 2.8813e-19 0)
(10.2254 2.82547e-19 0)
(10.2274 2.77055e-19 0)
(10.2294 2.7165e-19 0)
(10.2315 2.6633e-19 0)
(10.2334 2.61092e-19 0)
(10.2354 2.55935e-19 0)
(10.2374 2.50858e-19 0)
(10.2393 2.45859e-19 0)
(10.2412 2.40936e-19 0)
(10.2432 2.36089e-19 0)
(10.245 2.31316e-19 0)
(10.2469 2.26616e-19 0)
(10.2488 2.21986e-19 0)
(10.2506 2.17426e-19 0)
(10.2524 2.12934e-19 0)
(10.2542 2.08509e-19 0)
(10.256 2.04148e-19 0)
(10.2578 1.99852e-19 0)
(10.2596 1.95619e-19 0)
(10.2613 1.91446e-19 0)
(10.263 1.87334e-19 0)
(10.2647 1.8328e-19 0)
(10.2664 1.79284e-19 0)
(10.2681 1.75343e-19 0)
(10.2697 1.71458e-19 0)
(10.2714 1.67627e-19 0)
(10.273 1.63848e-19 0)
(10.2746 1.60121e-19 0)
(10.2762 1.56445e-19 0)
(10.2778 1.52817e-19 0)
(10.2793 1.49238e-19 0)
(10.2809 1.45717e-19 0)
(10.2824 1.42243e-19 0)
(10.2839 1.38815e-19 0)
(10.2854 1.35434e-19 0)
(10.2868 1.32096e-19 0)
(10.2883 1.28811e-19 0)
(10.2897 1.25577e-19 0)
(10.2911 1.22393e-19 0)
(10.2925 1.19258e-19 0)
(10.2939 1.16162e-19 0)
(10.2953 1.13114e-19 0)
(10.2966 1.10114e-19 0)
(10.2979 1.07159e-19 0)
(10.2993 1.0425e-19 0)
(10.3005 1.01384e-19 0)
(10.3018 9.85606e-20 0)
(10.3031 9.57793e-20 0)
(10.3043 9.30388e-20 0)
(10.3055 9.03382e-20 0)
(10.3068 8.76767e-20 0)
(10.3079 8.50533e-20 0)
(10.3091 8.24673e-20 0)
(10.3103 7.99178e-20 0)
(10.3114 7.74041e-20 0)
(10.3125 7.49255e-20 0)
(10.3136 7.24812e-20 0)
(10.3147 7.00704e-20 0)
(10.3158 6.76926e-20 0)
(10.3168 6.5347e-20 0)
(10.3178 6.3033e-20 0)
(10.3189 6.075e-20 0)
(10.3198 5.84974e-20 0)
(10.3208 5.62746e-20 0)
(10.3218 5.40811e-20 0)
(10.3227 5.19162e-20 0)
(10.3236 4.97795e-20 0)
(10.3245 4.76705e-20 0)
(10.3254 4.55887e-20 0)
(10.3263 4.35336e-20 0)
(10.3271 4.15048e-20 0)
(10.328 3.95019e-20 0)
(10.3288 3.75246e-20 0)
(10.3296 3.55721e-20 0)
(10.3303 3.36492e-20 0)
(10.3311 3.17556e-20 0)
(10.3318 2.98913e-20 0)
(10.3326 2.80509e-20 0)
(10.3333 2.62347e-20 0)
(10.3339 2.44421e-20 0)
(10.3346 2.26726e-20 0)
(10.3353 2.09308e-20 0)
(10.3359 1.92161e-20 0)
(10.3365 1.75283e-20 0)
(10.3371 1.58677e-20 0)
(10.3376 1.42289e-20 0)
(10.3382 1.26117e-20 0)
(10.3387 1.10215e-20 0)
(10.3392 9.4548e-21 0)
(10.3397 7.91127e-21 0)
(10.3402 6.39052e-21 0)
(10.3407 4.8922e-21 0)
(10.3411 3.41599e-21 0)
(10.3415 1.96457e-21 0)
(10.3419 5.3494e-22 0)
(10.3423 -8.72883e-22 0)
(10.3427 -2.2591e-21 0)
(10.343 -3.62413e-21 0)
(10.3433 -4.96568e-21 0)
(10.3437 -6.28419e-21 0)
(10.3439 -7.57991e-21 0)
(10.3442 -8.85292e-21 0)
(10.3445 -1.01046e-20 0)
(10.3447 -1.1335e-20 0)
(10.3449 -1.25441e-20 0)
(10.3451 -1.37318e-20 0)
(10.3453 -1.48984e-20 0)
(10.3454 -1.60437e-20 0)
(10.3455 -1.71678e-20 0)
(10.3457 -1.82707e-20 0)
(10.3458 -1.93525e-20 0)
(10.3458 -2.04131e-20 0)
(10.3459 -2.14523e-20 0)
(10.3459 -2.24703e-20 0)
(10.3459 -2.34669e-20 0)
(10.3459 -2.44421e-20 0)
(10.3459 -2.53961e-20 0)
(10.3459 -2.63288e-20 0)
(10.3458 -2.72404e-20 0)
(10.3458 -2.81308e-20 0)
(10.3457 -2.89998e-20 0)
(10.3455 -2.98472e-20 0)
(10.3454 -3.06731e-20 0)
(10.3453 -3.14783e-20 0)
(10.3451 -3.22628e-20 0)
(10.3449 -3.30264e-20 0)
(10.3447 -3.37694e-20 0)
(10.3445 -3.44915e-20 0)
(10.3442 -3.51929e-20 0)
(10.3439 -3.58736e-20 0)
(10.3437 -3.65319e-20 0)
(10.3433 -3.71681e-20 0)
(10.343 -3.7782e-20 0)
(10.3427 -3.83737e-20 0)
(10.3423 -3.89432e-20 0)
(10.3419 -3.94905e-20 0)
(10.3415 -4.00156e-20 0)
(10.3411 -4.05187e-20 0)
(10.3407 -4.09996e-20 0)
(10.3402 -4.14585e-20 0)
(10.3397 -4.18953e-20 0)
(10.3392 -4.23102e-20 0)
(10.3387 -4.27031e-20 0)
(10.3382 -4.30742e-20 0)
(10.3376 -4.34235e-20 0)
(10.3371 -4.37511e-20 0)
(10.3365 -4.40571e-20 0)
(10.3359 -4.43416e-20 0)
(10.3353 -4.46048e-20 0)
(10.3346 -4.48468e-20 0)
(10.3339 -4.50677e-20 0)
(10.3333 -4.52679e-20 0)
(10.3326 -4.54475e-20 0)
(10.3318 -4.56069e-20 0)
(10.3311 -4.57462e-20 0)
(10.3303 -4.58659e-20 0)
(10.3296 -4.59662e-20 0)
(10.3288 -4.60476e-20 0)
(10.328 -4.61104e-20 0)
(10.3271 -4.61551e-20 0)
(10.3263 -4.61821e-20 0)
(10.3254 -4.61919e-20 0)
(10.3245 -4.61851e-20 0)
(10.3236 -4.61622e-20 0)
(10.3227 -4.61238e-20 0)
(10.3218 -4.60704e-20 0)
(10.3208 -4.60026e-20 0)
(10.3198 -4.59211e-20 0)
(10.3189 -4.58265e-20 0)
(10.3178 -4.57195e-20 0)
(10.3168 -4.56008e-20 0)
(10.3158 -4.54708e-20 0)
(10.3147 -4.53246e-20 0)
(10.3136 -4.51626e-20 0)
(10.3125 -4.49856e-20 0)
(10.3114 -4.47941e-20 0)
(10.3103 -4.45888e-20 0)
(10.3091 -4.437e-20 0)
(10.3079 -4.41384e-20 0)
(10.3068 -4.38943e-20 0)
(10.3055 -4.3638e-20 0)
(10.3043 -4.33698e-20 0)
(10.3031 -4.30899e-20 0)
(10.3018 -4.27981e-20 0)
(10.3005 -4.24943e-20 0)
(10.2993 -4.2178e-20 0)
(10.2979 -4.18487e-20 0)
(10.2966 -4.15052e-20 0)
(10.2953 -4.11463e-20 0)
(10.2939 -4.07702e-20 0)
(10.2925 -4.03746e-20 0)
(10.2911 -3.99565e-20 0)
(10.2897 -3.95238e-20 0)
(10.2883 -3.9073e-20 0)
(10.2868 -3.8601e-20 0)
(10.2854 -3.81049e-20 0)
(10.2839 -3.75811e-20 0)
(10.2824 -3.7025e-20 0)
(10.2809 -3.64315e-20 0)
(10.2793 -3.57945e-20 0)
(10.2778 -3.51068e-20 0)
(10.2762 -3.43603e-20 0)
(10.2746 -3.35573e-20 0)
(10.273 -3.26884e-20 0)
(10.2714 -3.17434e-20 0)
(10.2697 -3.07106e-20 0)
(10.2681 -2.95888e-20 0)
(10.2664 -2.83654e-20 0)
(10.2647 -2.70265e-20 0)
(10.263 -2.55686e-20 0)
(10.2613 -2.39773e-20 0)
(10.2596 -2.2237e-20 0)
(10.2578 -2.03434e-20 0)
(10.256 -1.82813e-20 0)
(10.2542 -1.60473e-20 0)
(10.2524 -1.36285e-20 0)
(10.2506 -1.10135e-20 0)
(10.2488 -8.20371e-21 0)
(10.2469 -5.19262e-21 0)
(10.245 -1.97732e-21 0)
(10.2432 1.42912e-21 0)
(10.2412 5.01847e-21 0)
(10.2393 8.77442e-21 0)
(10.2374 1.26829e-20 0)
(10.2354 1.67086e-20 0)
(10.2334 2.0815e-20 0)
(10.2315 2.49521e-20 0)
(10.2294 2.90545e-20 0)
(10.2274 3.30504e-20 0)
(10.2254 3.68489e-20 0)
(10.2233 4.03377e-20 0)
(10.2212 4.34028e-20 0)
(10.2192 4.59064e-20 0)
(10.217 4.76849e-20 0)
(10.2149 4.85701e-20 0)
(10.2128 4.83679e-20 0)
(10.2106 4.68584e-20 0)
(10.2084 4.38183e-20 0)
(10.2063 3.9e-20 0)
(10.204 3.21334e-20 0)
(10.2018 2.29507e-20 0)
(10.1996 1.11921e-20 0)
(10.1973 -3.383e-21 0)
(10.195 -2.09516e-20 0)
(10.1927 -4.16916e-20 0)
(10.1904 -6.5065e-20 0)
(10.1881 -1.00562e-19 0)
(10.1858 -9.07882e-20 0)
(10.1834 -8.18235e-20 0)
(10.181 -1.19793e-19 0)
(10.1786 -1.45547e-19 0)
(10.1762 -1.66438e-19 0)
(10.1738 -1.84021e-19 0)
(10.1713 -2.0039e-19 0)
(10.1689 -2.15124e-19 0)
(10.1664 -2.28039e-19 0)
(10.1639 -2.39084e-19 0)
(10.1614 -2.48289e-19 0)
(10.1589 -2.55757e-19 0)
(10.1563 -2.61641e-19 0)
(10.1537 -2.66102e-19 0)
(10.1512 -2.693e-19 0)
(10.1486 -2.71408e-19 0)
(10.1459 -2.7258e-19 0)
(10.1433 -2.72956e-19 0)
(10.1407 -2.72673e-19 0)
(10.138 -2.71846e-19 0)
(10.1353 -2.70591e-19 0)
(10.1326 -2.69002e-19 0)
(10.1299 -2.67156e-19 0)
(10.1271 -2.65114e-19 0)
(10.1244 -2.62919e-19 0)
(10.1216 -2.60622e-19 0)
(10.1188 -2.58261e-19 0)
(10.116 -2.55846e-19 0)
(10.1132 -2.53397e-19 0)
(10.1104 -2.50926e-19 0)
(10.1075 -2.48436e-19 0)
(10.1046 -2.45947e-19 0)
(10.1017 -2.43455e-19 0)
(10.0988 -2.40952e-19 0)
(10.0959 -2.38429e-19 0)
(10.0929 -2.35874e-19 0)
(10.09 -2.33274e-19 0)
(10.087 -2.30636e-19 0)
(10.084 -2.27946e-19 0)
(10.0809 -2.2519e-19 0)
(10.0779 -2.22355e-19 0)
(10.0749 -2.19428e-19 0)
(10.0718 -2.16417e-19 0)
(10.0687 -2.13312e-19 0)
(10.0656 -2.10102e-19 0)
(10.0624 -2.0678e-19 0)
(10.0593 -2.03343e-19 0)
(10.0561 -1.99788e-19 0)
(10.0529 -1.96115e-19 0)
(10.0497 -1.92326e-19 0)
(10.0465 -1.88426e-19 0)
(10.0433 -1.84419e-19 0)
(10.04 -1.80315e-19 0)
(10.0367 -1.76123e-19 0)
(10.0334 -1.71833e-19 0)
(10.0301 -1.67457e-19 0)
(10.0268 -1.63004e-19 0)
(10.0234 -1.58457e-19 0)
(10.0201 -1.53815e-19 0)
(10.0167 -1.49064e-19 0)
(10.0133 -1.44156e-19 0)
(10.0098 -1.39042e-19 0)
(10.0064 -1.33647e-19 0)
(10.0029 -1.27882e-19 0)
(9.99943 -1.21591e-19 0)
(9.99592 -1.14611e-19 0)
(9.99239 -1.06737e-19 0)
(9.98885 -9.7704e-20 0)
(9.98528 -8.72196e-20 0)
(9.98169 -7.50158e-20 0)
(9.97809 -6.02501e-20 0)
(9.97446 -4.98477e-20 0)
(9.97082 -5.1097e-20 0)
(9.96715 -8.46374e-20 0)
(9.96346 -1.06438e-19 0)
(9.95976 -9.27305e-20 0)
(9.95603 -8.40952e-20 0)
(9.95228 -7.99292e-20 0)
(9.94852 -7.71738e-20 0)
(9.94473 -7.27164e-20 0)
(9.94092 -6.88159e-20 0)
(9.93709 -7.74551e-20 0)
(9.93324 -6.03265e-20 0)
(9.92937 -4.1343e-20 0)
(9.92547 -4.41287e-20 0)
(9.92156 -3.26157e-20 0)
(9.91763 -3.05906e-20 0)
(9.91367 -3.0677e-20 0)
(9.90969 -3.26709e-20 0)
(9.9057 -3.64023e-20 0)
(9.90168 -3.24892e-20 0)
(9.89763 -2.98476e-20 0)
(9.89357 -2.79095e-20 0)
(9.88948 -2.66124e-20 0)
(9.88538 -2.60226e-20 0)
(9.88125 -2.62997e-20 0)
(9.8771 -2.7613e-20 0)
(9.87292 -3.00886e-20 0)
(9.86873 -3.37613e-20 0)
(9.86451 -3.86105e-20 0)
(9.86027 -4.44676e-20 0)
(9.856 -5.10317e-20 0)
(9.85171 -5.78319e-20 0)
(9.8474 -6.41632e-20 0)
(9.84307 -6.89456e-20 0)
(9.83871 -7.06311e-20 0)
(9.83433 -6.6962e-20 0)
(9.82993 -5.75362e-20 0)
(9.82551 -4.37207e-20 0)
(9.82105 -2.70456e-20 0)
(9.81658 -1.54435e-20 0)
(9.81208 -7.29241e-20 0)
(9.80756 -1.30356e-19 0)
(9.80301 -1.18279e-19 0)
(9.79844 -1.0236e-19 0)
(9.79385 -9.24844e-20 0)
(9.78923 -8.84116e-20 0)
(9.78458 -8.98621e-20 0)
(9.77991 -9.68703e-20 0)
(9.77522 -1.07419e-19 0)
(9.7705 -1.20234e-19 0)
(9.76575 -1.34553e-19 0)
(9.76098 -1.498e-19 0)
(9.75619 -1.65533e-19 0)
(9.75136 -1.81444e-19 0)
(9.74652 -1.97328e-19 0)
(9.74164 -2.13012e-19 0)
(9.73674 -2.28417e-19 0)
(9.73181 -2.43461e-19 0)
(9.72686 -2.58128e-19 0)
(9.72188 -2.72421e-19 0)
(9.71687 -2.86312e-19 0)
(9.71184 -2.99819e-19 0)
(9.70678 -3.12962e-19 0)
(9.70169 -3.25762e-19 0)
(9.69657 -3.38241e-19 0)
(9.69142 -3.50375e-19 0)
(9.68625 -3.62183e-19 0)
(9.68105 -3.7368e-19 0)
(9.67582 -3.84876e-19 0)
(9.67056 -3.95779e-19 0)
(9.66527 -4.06391e-19 0)
(9.65996 -4.16711e-19 0)
(9.65461 -4.26734e-19 0)
(9.64923 -4.36451e-19 0)
(9.64383 -4.4585e-19 0)
(9.6384 -4.54915e-19 0)
(9.63293 -4.63625e-19 0)
(9.62743 -4.71952e-19 0)
(9.62191 -4.79912e-19 0)
(9.61635 -4.87475e-19 0)
(9.61076 -4.94605e-19 0)
(9.60515 -5.01261e-19 0)
(9.5995 -5.074e-19 0)
(9.59381 -5.13022e-19 0)
(9.5881 -5.18076e-19 0)
(9.58235 -5.22511e-19 0)
(9.57657 -5.26319e-19 0)
(9.57076 -5.29447e-19 0)
(9.56492 -5.31842e-19 0)
(9.55904 -5.33448e-19 0)
(9.55313 -5.34258e-19 0)
(9.54718 -5.34216e-19 0)
(9.5412 -5.33266e-19 0)
(9.53519 -5.31397e-19 0)
(9.52914 -5.28559e-19 0)
(9.52306 -5.24704e-19 0)
(9.51694 -5.1984e-19 0)
(9.51079 -5.13996e-19 0)
(9.5046 -5.07235e-19 0)
(9.49837 -4.99935e-19 0)
(9.49211 -4.89407e-19 0)
(9.48581 -4.75372e-19 0)
(9.47947 -4.68199e-19 0)
(9.4731 -5.17331e-19 0)
(9.46668 -5.66369e-19 0)
(9.46023 -5.58622e-19 0)
(9.45375 -5.43546e-19 0)
(9.44722 -5.31326e-19 0)
(9.44065 -5.24775e-19 0)
(9.43404 -5.21244e-19 0)
(9.4274 -5.18067e-19 0)
(9.42071 -5.15531e-19 0)
(9.41398 -5.1364e-19 0)
(9.40721 -5.12424e-19 0)
(9.4004 -5.11858e-19 0)
(9.39355 -5.11962e-19 0)
(9.38666 -5.12704e-19 0)
(9.37972 -5.14053e-19 0)
(9.37274 -5.15976e-19 0)
(9.36571 -5.18432e-19 0)
(9.35864 -5.21377e-19 0)
(9.35153 -5.2481e-19 0)
(9.34437 -5.28671e-19 0)
(9.33717 -5.32892e-19 0)
(9.32992 -5.37389e-19 0)
(9.32262 -5.42117e-19 0)
(9.31528 -5.46956e-19 0)
(9.30789 -5.51812e-19 0)
(9.30045 -5.56515e-19 0)
(9.29296 -5.60914e-19 0)
(9.28542 -5.6482e-19 0)
(9.27783 -5.68008e-19 0)
(9.2702 -5.70208e-19 0)
(9.26251 -5.71155e-19 0)
(9.25477 -5.70537e-19 0)
(9.24698 -5.67992e-19 0)
(9.23913 -5.63107e-19 0)
(9.23124 -5.55413e-19 0)
(9.22329 -5.44312e-19 0)
(9.21528 -5.29159e-19 0)
(9.20722 -5.08593e-19 0)
(9.1991 -4.91281e-19 0)
(9.19093 -4.97737e-19 0)
(9.1827 -5.01883e-19 0)
(9.17441 -4.77513e-19 0)
(9.16606 -4.45161e-19 0)
(9.15765 -4.13754e-19 0)
(9.14919 -3.81941e-19 0)
(9.14066 -3.52256e-19 0)
(9.13207 -3.27382e-19 0)
(9.12342 -3.06477e-19 0)
(9.1147 -3.00968e-19 0)
(9.10592 -3.23688e-19 0)
(9.09707 -3.49052e-19 0)
(9.08816 -3.51389e-19 0)
(9.07918 -3.43381e-19 0)
(9.07014 -3.36635e-19 0)
(9.06102 -3.30778e-19 0)
(9.05183 -3.26026e-19 0)
(9.04258 -3.22515e-19 0)
(9.03325 -3.20318e-19 0)
(9.02385 -3.19352e-19 0)
(9.01437 -3.19654e-19 0)
(9.00482 -3.17706e-19 0)
(8.9952 -3.1209e-19 0)
(8.98549 -3.17385e-19 0)
(8.97571 -3.76173e-19 0)
(8.96585 -4.34074e-19 0)
(8.9559 -4.38978e-19 0)
(8.94588 -4.35543e-19 0)
(8.93577 -4.44659e-19 0)
(8.92558 -4.53394e-19 0)
(8.9153 -4.60399e-19 0)
(8.90493 -4.6459e-19 0)
(8.89447 -4.56459e-19 0)
(8.88393 -4.57693e-19 0)
(8.87329 -4.97209e-19 0)
(8.86255 -5.35615e-19 0)
(8.85173 -5.34107e-19 0)
(8.8408 -5.27142e-19 0)
(8.82978 -5.25042e-19 0)
(8.81865 -5.22548e-19 0)
(8.80743 -5.17693e-19 0)
(8.7961 -5.11388e-19 0)
(8.78466 -5.03476e-19 0)
(8.77312 -5.02103e-19 0)
(8.76147 -5.19601e-19 0)
(8.7497 -5.36942e-19 0)
(8.73782 -5.34913e-19 0)
(8.72583 -5.25462e-19 0)
(8.71372 -5.16438e-19 0)
(8.70149 -5.07236e-19 0)
(8.68913 -4.97934e-19 0)
(8.67665 -4.88503e-19 0)
(8.66404 -4.79007e-19 0)
(8.6513 -4.69455e-19 0)
(8.63843 -4.59933e-19 0)
(8.62542 -4.50451e-19 0)
(8.61227 -4.41089e-19 0)
(8.59898 -4.31919e-19 0)
(8.58555 -4.22929e-19 0)
(8.57197 -4.14172e-19 0)
(8.55824 -4.05689e-19 0)
(8.54435 -3.9751e-19 0)
(8.53031 -3.89659e-19 0)
(8.5161 -3.82148e-19 0)
(8.50173 -3.74979e-19 0)
(8.48719 -3.68143e-19 0)
(8.47247 -3.61617e-19 0)
(8.45758 -3.55365e-19 0)
(8.44251 -3.49326e-19 0)
(8.42725 -3.43514e-19 0)
(8.4118 -3.37846e-19 0)
(8.39616 -3.32226e-19 0)
(8.38031 -3.26642e-19 0)
(8.36426 -3.21093e-19 0)
(8.348 -3.15715e-19 0)
(8.33152 -3.10193e-19 0)
(8.31482 -3.09265e-19 0)
(8.29789 -2.95553e-19 0)
(8.28072 -2.81843e-19 0)
(8.26332 -2.81694e-19 0)
(8.24566 -2.77187e-19 0)
(8.22775 -2.72963e-19 0)
(8.20958 -2.68748e-19 0)
(8.19113 -2.64663e-19 0)
(8.17241 -2.60577e-19 0)
(8.1534 -2.56544e-19 0)
(8.13409 -2.52414e-19 0)
(8.11448 -2.48044e-19 0)
(8.09455 -2.43515e-19 0)
(8.07429 -2.38721e-19 0)
(8.05369 -2.33577e-19 0)
(8.03275 -2.28023e-19 0)
(8.01145 -2.22022e-19 0)
(7.98977 -2.15564e-19 0)
(7.96771 -2.08677e-19 0)
(7.94524 -2.01428e-19 0)
(7.92236 -1.93665e-19 0)
(7.89905 -1.85473e-19 0)
(7.87529 -1.76674e-19 0)
(7.85106 -1.67238e-19 0)
(7.82635 -1.56441e-19 0)
(7.80114 -1.50871e-19 0)
(7.7754 -1.65565e-19 0)
(7.74911 -1.81249e-19 0)
(7.72226 -1.77635e-19 0)
(7.6948 -1.69331e-19 0)
(7.66672 -1.62929e-19 0)
(7.63799 -1.5751e-19 0)
(7.60858 -1.52437e-19 0)
(7.57845 -1.46543e-19 0)
(7.54757 -1.44303e-19 0)
(7.51589 -1.9131e-19 0)
(7.48339 -2.4065e-19 0)
(7.45 -2.3898e-19 0)
(7.41569 -2.32197e-19 0)
(7.38041 -2.28184e-19 0)
(7.34408 -2.2569e-19 0)
(7.30666 -2.24489e-19 0)
(7.26808 -2.24201e-19 0)
(7.22825 -2.2454e-19 0)
(7.18711 -2.31169e-19 0)
(7.14455 -2.3294e-19 0)
(7.10049 -2.31368e-19 0)
(7.0548 -2.33104e-19 0)
(7.00737 -2.28098e-19 0)
(6.95807 -2.21681e-19 0)
(6.90673 -2.13258e-19 0)
(6.8532 -2.03135e-19 0)
(6.79727 -1.88032e-19 0)
(6.73872 -1.67357e-19 0)
(6.67731 -1.48455e-19 0)
(6.61275 -1.44275e-19 0)
(6.5447 -1.40703e-19 0)
(6.47278 -1.21628e-19 0)
(6.39654 -9.85054e-20 0)
(6.31545 -8.09565e-20 0)
(6.22886 -8.18014e-20 0)
(6.13602 -8.67317e-20 0)
(6.036 -8.03676e-20 0)
(5.92766 -7.33727e-20 0)
(5.80957 -6.87859e-20 0)
(5.67995 -6.61181e-20 0)
(5.53647 -6.43877e-20 0)
(5.37611 -6.11906e-20 0)
(5.19484 -6.11938e-20 0)
(4.98716 -5.55599e-20 0)
(4.7454 -4.69224e-20 0)
(4.45877 -4.55362e-20 0)
(4.11211 -3.87039e-20 0)
(3.68552 -2.96072e-20 0)
(3.15891 -1.94101e-20 0)
(2.52937 -9.71082e-21 0)
(1.82885 -2.3327e-21 0)
(1.10111 2.48169e-21 0)
(0.367631 -4.79799e-22 0)
)
;

boundaryField
{
    top_wall
    {
        type            noSlip;
    }
    inlet
    {
        type            cyclic;
    }
    bot_wall
    {
        type            noSlip;
    }
    outlet
    {
        type            cyclic;
    }
    frontAndBack
    {
        type            empty;
    }
}


// ************************************************************************* //
