# Wall shear stress
# Time          	patch           	min             	max             
0.5             	top_wall	(-3.22145103e-01 -3.12088010e-21 0.00000000e+00)	(-3.22145103e-01 -3.12088010e-21 0.00000000e+00)
0.5             	bot_wall	(-3.22145239e-01 3.01249700e-18 0.00000000e+00)	(-3.22145239e-01 3.01249700e-18 0.00000000e+00)
1               	top_wall	(-2.93136486e-01 -1.00787513e-21 0.00000000e+00)	(-2.93136486e-01 -1.00787513e-21 0.00000000e+00)
1               	bot_wall	(-2.93136553e-01 1.69448814e-18 0.00000000e+00)	(-2.93136553e-01 1.69448814e-18 0.00000000e+00)
1.5             	top_wall	(-2.78824451e-01 1.77309747e-21 0.00000000e+00)	(-2.78824451e-01 1.77309747e-21 0.00000000e+00)
1.5             	bot_wall	(-2.78824489e-01 2.30320813e-18 0.00000000e+00)	(-2.78824489e-01 2.30320813e-18 0.00000000e+00)
2               	top_wall	(-2.69672038e-01 -2.28297446e-21 0.00000000e+00)	(-2.69672038e-01 -2.28297446e-21 0.00000000e+00)
2               	bot_wall	(-2.69672064e-01 2.03691428e-18 0.00000000e+00)	(-2.69672064e-01 2.03691428e-18 0.00000000e+00)
2.5             	top_wall	(-2.63100732e-01 -7.43507778e-22 0.00000000e+00)	(-2.63100732e-01 -7.43507778e-22 0.00000000e+00)
2.5             	bot_wall	(-2.63100751e-01 2.39538916e-18 0.00000000e+00)	(-2.63100751e-01 2.39538916e-18 0.00000000e+00)
3               	top_wall	(-2.58055572e-01 -6.13118220e-22 0.00000000e+00)	(-2.58055572e-01 -6.13118220e-22 0.00000000e+00)
3               	bot_wall	(-2.58055585e-01 2.55520903e-18 0.00000000e+00)	(-2.58055585e-01 2.55520903e-18 0.00000000e+00)
3.5             	top_wall	(-2.54008946e-01 -9.01830767e-22 0.00000000e+00)	(-2.54008946e-01 -9.01830767e-22 0.00000000e+00)
3.5             	bot_wall	(-2.54008954e-01 2.65430427e-18 0.00000000e+00)	(-2.54008954e-01 2.65430427e-18 0.00000000e+00)
4               	top_wall	(-2.50660892e-01 -9.16398788e-22 0.00000000e+00)	(-2.50660892e-01 -9.16398788e-22 0.00000000e+00)
4               	bot_wall	(-2.50660897e-01 2.83981858e-18 0.00000000e+00)	(-2.50660897e-01 2.83981858e-18 0.00000000e+00)
4.5             	top_wall	(-2.47824793e-01 -1.92570000e-21 0.00000000e+00)	(-2.47824793e-01 -1.92570000e-21 0.00000000e+00)
4.5             	bot_wall	(-2.47824796e-01 2.20236816e-18 0.00000000e+00)	(-2.47824796e-01 2.20236816e-18 0.00000000e+00)
5               	top_wall	(-2.45378020e-01 5.64965125e-22 0.00000000e+00)	(-2.45378020e-01 5.64965125e-22 0.00000000e+00)
5               	bot_wall	(-2.45378020e-01 2.37925555e-18 0.00000000e+00)	(-2.45378020e-01 2.37925555e-18 0.00000000e+00)
5.5             	top_wall	(-2.43234408e-01 5.24692148e-22 0.00000000e+00)	(-2.43234408e-01 5.24692148e-22 0.00000000e+00)
5.5             	bot_wall	(-2.43234406e-01 2.47855595e-18 0.00000000e+00)	(-2.43234406e-01 2.47855595e-18 0.00000000e+00)
6               	top_wall	(-2.41331179e-01 9.45064112e-24 0.00000000e+00)	(-2.41331179e-01 9.45064112e-24 0.00000000e+00)
6               	bot_wall	(-2.41331175e-01 2.34661266e-18 0.00000000e+00)	(-2.41331175e-01 2.34661266e-18 0.00000000e+00)
6.5             	top_wall	(-2.39622177e-01 -1.08667118e-21 0.00000000e+00)	(-2.39622177e-01 -1.08667118e-21 0.00000000e+00)
6.5             	bot_wall	(-2.39622172e-01 2.92075490e-18 0.00000000e+00)	(-2.39622172e-01 2.92075490e-18 0.00000000e+00)
7               	top_wall	(-2.38073539e-01 -1.58231276e-22 0.00000000e+00)	(-2.38073539e-01 -1.58231276e-22 0.00000000e+00)
7               	bot_wall	(-2.38073532e-01 3.07332992e-18 0.00000000e+00)	(-2.38073532e-01 3.07332992e-18 0.00000000e+00)
7.5             	top_wall	(-2.36659565e-01 -2.80271975e-21 0.00000000e+00)	(-2.36659565e-01 -2.80271975e-21 0.00000000e+00)
7.5             	bot_wall	(-2.36659557e-01 2.49031047e-18 0.00000000e+00)	(-2.36659557e-01 2.49031047e-18 0.00000000e+00)
8               	top_wall	(-2.35360516e-01 1.12952067e-21 0.00000000e+00)	(-2.35360516e-01 1.12952067e-21 0.00000000e+00)
8               	bot_wall	(-2.35360507e-01 3.26135485e-18 0.00000000e+00)	(-2.35360507e-01 3.26135485e-18 0.00000000e+00)
8.5             	top_wall	(-2.34161388e-01 -8.86454070e-22 0.00000000e+00)	(-2.34161388e-01 -8.86454070e-22 0.00000000e+00)
8.5             	bot_wall	(-2.34161377e-01 3.08209421e-18 0.00000000e+00)	(-2.34161377e-01 3.08209421e-18 0.00000000e+00)
9               	top_wall	(-2.33050817e-01 -8.62867237e-22 0.00000000e+00)	(-2.33050817e-01 -8.62867237e-22 0.00000000e+00)
9               	bot_wall	(-2.33050806e-01 2.67874108e-18 0.00000000e+00)	(-2.33050806e-01 2.67874108e-18 0.00000000e+00)
9.5             	top_wall	(-2.32020434e-01 1.16883027e-21 0.00000000e+00)	(-2.32020434e-01 1.16883027e-21 0.00000000e+00)
9.5             	bot_wall	(-2.32020422e-01 3.33807137e-18 0.00000000e+00)	(-2.32020422e-01 3.33807137e-18 0.00000000e+00)
10              	top_wall	(-2.31063648e-01 -5.54787328e-22 0.00000000e+00)	(-2.31063648e-01 -5.54787328e-22 0.00000000e+00)
10              	bot_wall	(-2.31063635e-01 3.43623289e-18 0.00000000e+00)	(-2.31063635e-01 3.43623289e-18 0.00000000e+00)
10.5            	top_wall	(-2.30175317e-01 -1.75565811e-21 0.00000000e+00)	(-2.30175317e-01 -1.75565811e-21 0.00000000e+00)
10.5            	bot_wall	(-2.30175304e-01 3.05019835e-18 0.00000000e+00)	(-2.30175304e-01 3.05019835e-18 0.00000000e+00)
11              	top_wall	(-2.29351546e-01 -3.78191341e-22 0.00000000e+00)	(-2.29351546e-01 -3.78191341e-22 0.00000000e+00)
11              	bot_wall	(-2.29351532e-01 2.98825378e-18 0.00000000e+00)	(-2.29351532e-01 2.98825378e-18 0.00000000e+00)
11.5            	top_wall	(-2.28589347e-01 2.11190009e-21 0.00000000e+00)	(-2.28589347e-01 2.11190009e-21 0.00000000e+00)
11.5            	bot_wall	(-2.28589333e-01 3.03844056e-18 0.00000000e+00)	(-2.28589333e-01 3.03844056e-18 0.00000000e+00)
12              	top_wall	(-2.27886362e-01 8.05628193e-22 0.00000000e+00)	(-2.27886362e-01 8.05628193e-22 0.00000000e+00)
12              	bot_wall	(-2.27886348e-01 3.27105242e-18 0.00000000e+00)	(-2.27886348e-01 3.27105242e-18 0.00000000e+00)
12.5            	top_wall	(-2.27240631e-01 -4.44388579e-22 0.00000000e+00)	(-2.27240631e-01 -4.44388579e-22 0.00000000e+00)
12.5            	bot_wall	(-2.27240616e-01 3.17619699e-18 0.00000000e+00)	(-2.27240616e-01 3.17619699e-18 0.00000000e+00)
13              	top_wall	(-2.26650419e-01 2.56938678e-21 0.00000000e+00)	(-2.26650419e-01 2.56938678e-21 0.00000000e+00)
13              	bot_wall	(-2.26650404e-01 3.28608629e-18 0.00000000e+00)	(-2.26650404e-01 3.28608629e-18 0.00000000e+00)
13.5            	top_wall	(-2.26113931e-01 -2.43440161e-22 0.00000000e+00)	(-2.26113931e-01 -2.43440161e-22 0.00000000e+00)
13.5            	bot_wall	(-2.26113915e-01 2.49987540e-18 0.00000000e+00)	(-2.26113915e-01 2.49987540e-18 0.00000000e+00)
14              	top_wall	(-2.25629050e-01 2.01925702e-22 0.00000000e+00)	(-2.25629050e-01 2.01925702e-22 0.00000000e+00)
14              	bot_wall	(-2.25629035e-01 2.75906031e-18 0.00000000e+00)	(-2.25629035e-01 2.75906031e-18 0.00000000e+00)
14.5            	top_wall	(-2.25193407e-01 1.14993245e-22 0.00000000e+00)	(-2.25193407e-01 1.14993245e-22 0.00000000e+00)
14.5            	bot_wall	(-2.25193391e-01 2.75855886e-18 0.00000000e+00)	(-2.25193391e-01 2.75855886e-18 0.00000000e+00)
15              	top_wall	(-2.24804391e-01 -1.97965798e-22 0.00000000e+00)	(-2.24804391e-01 -1.97965798e-22 0.00000000e+00)
15              	bot_wall	(-2.24804375e-01 2.42600833e-18 0.00000000e+00)	(-2.24804375e-01 2.42600833e-18 0.00000000e+00)
15.5            	top_wall	(-2.24459189e-01 1.43160678e-21 0.00000000e+00)	(-2.24459189e-01 1.43160678e-21 0.00000000e+00)
15.5            	bot_wall	(-2.24459173e-01 3.17377450e-18 0.00000000e+00)	(-2.24459173e-01 3.17377450e-18 0.00000000e+00)
16              	top_wall	(-2.24154875e-01 3.51743654e-21 0.00000000e+00)	(-2.24154875e-01 3.51743654e-21 0.00000000e+00)
16              	bot_wall	(-2.24154860e-01 3.07624565e-18 0.00000000e+00)	(-2.24154860e-01 3.07624565e-18 0.00000000e+00)
16.5            	top_wall	(-2.23888488e-01 -3.42204596e-21 0.00000000e+00)	(-2.23888488e-01 -3.42204596e-21 0.00000000e+00)
16.5            	bot_wall	(-2.23888473e-01 3.20579864e-18 0.00000000e+00)	(-2.23888473e-01 3.20579864e-18 0.00000000e+00)
17              	top_wall	(-2.23657106e-01 7.34755562e-22 0.00000000e+00)	(-2.23657106e-01 7.34755562e-22 0.00000000e+00)
17              	bot_wall	(-2.23657091e-01 2.31490428e-18 0.00000000e+00)	(-2.23657091e-01 2.31490428e-18 0.00000000e+00)
17.5            	top_wall	(-2.23457889e-01 -3.13696181e-21 0.00000000e+00)	(-2.23457889e-01 -3.13696181e-21 0.00000000e+00)
17.5            	bot_wall	(-2.23457874e-01 3.12975898e-18 0.00000000e+00)	(-2.23457874e-01 3.12975898e-18 0.00000000e+00)
18              	top_wall	(-2.23288188e-01 2.77866171e-21 0.00000000e+00)	(-2.23288188e-01 2.77866171e-21 0.00000000e+00)
18              	bot_wall	(-2.23288173e-01 2.70676253e-18 0.00000000e+00)	(-2.23288173e-01 2.70676253e-18 0.00000000e+00)
18.5            	top_wall	(-2.23145502e-01 -1.50758932e-21 0.00000000e+00)	(-2.23145502e-01 -1.50758932e-21 0.00000000e+00)
18.5            	bot_wall	(-2.23145487e-01 2.98889494e-18 0.00000000e+00)	(-2.23145487e-01 2.98889494e-18 0.00000000e+00)
19              	top_wall	(-2.23027410e-01 -1.85449861e-22 0.00000000e+00)	(-2.23027410e-01 -1.85449861e-22 0.00000000e+00)
19              	bot_wall	(-2.23027396e-01 3.44506150e-18 0.00000000e+00)	(-2.23027396e-01 3.44506150e-18 0.00000000e+00)
19.5            	top_wall	(-2.22931629e-01 -2.40216685e-22 0.00000000e+00)	(-2.22931629e-01 -2.40216685e-22 0.00000000e+00)
19.5            	bot_wall	(-2.22931615e-01 2.81194629e-18 0.00000000e+00)	(-2.22931615e-01 2.81194629e-18 0.00000000e+00)
20              	top_wall	(-2.22855977e-01 8.28891365e-22 0.00000000e+00)	(-2.22855977e-01 8.28891365e-22 0.00000000e+00)
20              	bot_wall	(-2.22855963e-01 2.78820008e-18 0.00000000e+00)	(-2.22855963e-01 2.78820008e-18 0.00000000e+00)
20.5            	top_wall	(-2.22798476e-01 -2.78095853e-21 0.00000000e+00)	(-2.22798476e-01 -2.78095853e-21 0.00000000e+00)
20.5            	bot_wall	(-2.22798463e-01 2.66857813e-18 0.00000000e+00)	(-2.22798463e-01 2.66857813e-18 0.00000000e+00)
21              	top_wall	(-2.22757281e-01 5.08528049e-22 0.00000000e+00)	(-2.22757281e-01 5.08528049e-22 0.00000000e+00)
21              	bot_wall	(-2.22757268e-01 2.53498424e-18 0.00000000e+00)	(-2.22757268e-01 2.53498424e-18 0.00000000e+00)
21.5            	top_wall	(-2.22730611e-01 -5.30994586e-22 0.00000000e+00)	(-2.22730611e-01 -5.30994586e-22 0.00000000e+00)
21.5            	bot_wall	(-2.22730598e-01 2.58515560e-18 0.00000000e+00)	(-2.22730598e-01 2.58515560e-18 0.00000000e+00)
22              	top_wall	(-2.22716750e-01 5.97969785e-21 0.00000000e+00)	(-2.22716750e-01 5.97969785e-21 0.00000000e+00)
22              	bot_wall	(-2.22716737e-01 2.99339592e-18 0.00000000e+00)	(-2.22716737e-01 2.99339592e-18 0.00000000e+00)
22.5            	top_wall	(-2.22714215e-01 -1.13605528e-22 0.00000000e+00)	(-2.22714215e-01 -1.13605528e-22 0.00000000e+00)
22.5            	bot_wall	(-2.22714203e-01 3.17270566e-18 0.00000000e+00)	(-2.22714203e-01 3.17270566e-18 0.00000000e+00)
23              	top_wall	(-2.22721584e-01 -1.73120992e-21 0.00000000e+00)	(-2.22721584e-01 -1.73120992e-21 0.00000000e+00)
23              	bot_wall	(-2.22721571e-01 2.35894259e-18 0.00000000e+00)	(-2.22721571e-01 2.35894259e-18 0.00000000e+00)
23.5            	top_wall	(-2.22737460e-01 8.06156131e-22 0.00000000e+00)	(-2.22737460e-01 8.06156131e-22 0.00000000e+00)
23.5            	bot_wall	(-2.22737448e-01 2.96581136e-18 0.00000000e+00)	(-2.22737448e-01 2.96581136e-18 0.00000000e+00)
24              	top_wall	(-2.22760670e-01 4.14553742e-22 0.00000000e+00)	(-2.22760670e-01 4.14553742e-22 0.00000000e+00)
24              	bot_wall	(-2.22760658e-01 2.35272971e-18 0.00000000e+00)	(-2.22760658e-01 2.35272971e-18 0.00000000e+00)
