/*--------------------------------*- C++ -*----------------------------------*\
| =========                 |                                                 |
| \\      /  F ield         | OpenFOAM: The Open Source CFD Toolbox           |
|  \\    /   O peration     | Version:  2312                                  |
|   \\  /    A nd           | Website:  www.openfoam.com                      |
|    \\/     M anipulation  |                                                 |
\*---------------------------------------------------------------------------*/
FoamFile
{
    version     2.0;
    format      ascii;
    arch        "LSB;label=32;scalar=64";
    class       volScalarField;
    location    "100";
    object      nut;
}
// * * * * * * * * * * * * * * * * * * * * * * * * * * * * * * * * * * * * * //

dimensions      [0 2 -1 0 0 0 0];

internalField   nonuniform List<scalar> 
1000
(
9.25333e-07
1.15566e-05
3.33558e-05
4.94528e-05
6.49008e-05
8.20151e-05
0.000100461
0.00011962
0.000131621
0.000147438
0.000164695
0.000182698
0.000201404
0.000220743
0.000240602
0.000260869
0.000281443
0.000302231
0.000323149
0.000344125
0.000365092
0.000385996
0.000406791
0.000427443
0.000447926
0.000468234
0.000488361
0.000508281
0.00052739
0.000545903
0.000564338
0.000582694
0.000600969
0.000619162
0.000637272
0.000655298
0.000673239
0.000691094
0.000708863
0.000726546
0.000744142
0.000761652
0.000779074
0.000796409
0.000813658
0.000830819
0.000847893
0.000864881
0.000881782
0.000898596
0.000915323
0.000931965
0.00094852
0.00096499
0.000981374
0.000997673
0.00101389
0.00103002
0.00104606
0.00106202
0.0010779
0.00109369
0.0011094
0.00112502
0.00114057
0.00115603
0.0011714
0.0011867
0.00120192
0.00121705
0.0012321
0.00124707
0.00126196
0.00127678
0.00129151
0.00130616
0.00132073
0.00133522
0.00134964
0.00136388
0.00137804
0.00139211
0.0014061
0.00142001
0.00143384
0.0014476
0.00146128
0.0014749
0.00148845
0.00150194
0.00151535
0.00152871
0.001542
0.00155523
0.0015684
0.0015815
0.00159454
0.00160752
0.00162043
0.00163328
0.00164607
0.0016588
0.00167146
0.00168405
0.00169658
0.00170904
0.00172144
0.00173377
0.00174603
0.00175823
0.00177036
0.00178242
0.00179441
0.00180634
0.00181819
0.00182998
0.0018417
0.00185336
0.00186495
0.00187647
0.00188794
0.00189934
0.00191065
0.00192182
0.00193293
0.00194397
0.00195494
0.00196585
0.00197669
0.00198747
0.00199818
0.00200882
0.00201941
0.00202992
0.00204038
0.00205077
0.00206109
0.00207136
0.00208155
0.00209169
0.00210176
0.00211177
0.00212172
0.0021316
0.00214143
0.00215119
0.00216088
0.00217052
0.0021801
0.00218961
0.00219907
0.00220846
0.00221779
0.00222706
0.00223627
0.00224543
0.00225452
0.00226355
0.00227252
0.00228144
0.00229029
0.00229909
0.00230782
0.0023165
0.00232512
0.00233368
0.00234219
0.00235064
0.00235902
0.00236736
0.00237563
0.00238385
0.00239201
0.00240011
0.00240816
0.00241615
0.00242409
0.00243197
0.00243979
0.00244756
0.00245527
0.00246293
0.00247053
0.00247808
0.00248558
0.00249302
0.0025004
0.00250773
0.00251501
0.00252223
0.0025294
0.00253652
0.00254359
0.0025506
0.00255756
0.00256446
0.00257131
0.00257812
0.00258486
0.00259156
0.00259821
0.0026048
0.00261135
0.00261784
0.00262428
0.00263067
0.00263701
0.0026433
0.00264954
0.00265573
0.00266186
0.00266795
0.00267399
0.00267998
0.00268593
0.00269182
0.00269766
0.00270346
0.00270921
0.0027149
0.00272056
0.00272616
0.00273171
0.00273722
0.00274268
0.0027481
0.00275346
0.00275878
0.00276405
0.00276928
0.00277446
0.0027796
0.00278469
0.00278973
0.00279473
0.00279968
0.00280459
0.00280945
0.00281427
0.00281904
0.00282377
0.00282845
0.00283309
0.00283769
0.00284224
0.00284675
0.00285122
0.00285564
0.00286002
0.00286436
0.00286865
0.00287291
0.00287712
0.00288128
0.00288541
0.0028895
0.00289354
0.00289754
0.0029015
0.00290543
0.00290931
0.00291315
0.00291694
0.0029207
0.00292442
0.0029281
0.00293174
0.00293534
0.0029389
0.00294243
0.00294591
0.00294936
0.00295276
0.00295613
0.00295946
0.00296276
0.00296601
0.00296923
0.00297241
0.00297555
0.00297866
0.00298173
0.00298476
0.00298776
0.00299072
0.00299365
0.00299654
0.00299939
0.00300221
0.00300499
0.00300774
0.00301046
0.00301314
0.00301578
0.00301839
0.00302097
0.00302351
0.00302602
0.0030285
0.00303094
0.00303335
0.00303573
0.00303808
0.00304039
0.00304267
0.00304492
0.00304714
0.00304932
0.00305148
0.0030536
0.00305569
0.00305776
0.00305979
0.00306179
0.00306376
0.0030657
0.00306761
0.00306949
0.00307134
0.00307317
0.00307496
0.00307673
0.00307847
0.00308017
0.00308185
0.00308351
0.00308513
0.00308673
0.0030883
0.00308985
0.00309136
0.00309285
0.00309432
0.00309576
0.00309717
0.00309855
0.00309991
0.00310125
0.00310256
0.00310384
0.00310511
0.00310634
0.00310755
0.00310874
0.0031099
0.00311104
0.00311216
0.00311326
0.00311433
0.00311537
0.0031164
0.0031174
0.00311838
0.00311934
0.00312028
0.0031212
0.00312209
0.00312297
0.00312382
0.00312465
0.00312547
0.00312626
0.00312703
0.00312779
0.00312852
0.00312924
0.00312993
0.00313061
0.00313127
0.00313191
0.00313253
0.00313314
0.00313372
0.00313429
0.00313485
0.00313538
0.0031359
0.0031364
0.00313689
0.00313736
0.00313782
0.00313825
0.00313868
0.00313909
0.00313948
0.00313986
0.00314023
0.00314058
0.00314091
0.00314124
0.00314155
0.00314184
0.00314213
0.0031424
0.00314265
0.0031429
0.00314313
0.00314335
0.00314356
0.00314376
0.00314395
0.00314412
0.00314429
0.00314444
0.00314459
0.00314472
0.00314485
0.00314496
0.00314506
0.00314516
0.00314525
0.00314532
0.00314539
0.00314545
0.00314551
0.00314555
0.00314559
0.00314562
0.00314564
0.00314566
0.00314567
0.00314567
0.00314566
0.00314565
0.00314564
0.00314561
0.00314559
0.00314555
0.00314551
0.00314547
0.00314542
0.00314537
0.00314531
0.00314525
0.00314519
0.00314512
0.00314504
0.00314497
0.00314489
0.00314481
0.00314472
0.00314464
0.00314455
0.00314445
0.00314436
0.00314427
0.00314417
0.00314407
0.00314397
0.00314387
0.00314376
0.00314366
0.00314356
0.00314345
0.00314335
0.00314324
0.00314314
0.00314303
0.00314293
0.00314282
0.00314272
0.00314261
0.00314251
0.00314241
0.00314231
0.00314221
0.00314211
0.00314202
0.00314192
0.00314183
0.00314174
0.00314165
0.00314156
0.00314147
0.00314139
0.00314131
0.00314123
0.00314116
0.00314108
0.00314101
0.00314094
0.00314088
0.00314082
0.00314076
0.0031407
0.00314065
0.0031406
0.00314055
0.00314051
0.00314047
0.00314043
0.0031404
0.00314037
0.00314035
0.00314032
0.00314031
0.00314029
0.00314028
0.00314027
0.00314027
0.00314027
0.00314027
0.00314028
0.00314029
0.00314031
0.00314032
0.00314035
0.00314037
0.0031404
0.00314043
0.00314047
0.00314051
0.00314055
0.0031406
0.00314065
0.0031407
0.00314076
0.00314082
0.00314088
0.00314094
0.00314101
0.00314108
0.00314116
0.00314123
0.00314131
0.00314139
0.00314147
0.00314156
0.00314165
0.00314174
0.00314183
0.00314192
0.00314202
0.00314211
0.00314221
0.00314231
0.00314241
0.00314251
0.00314262
0.00314272
0.00314282
0.00314293
0.00314303
0.00314314
0.00314324
0.00314335
0.00314345
0.00314356
0.00314366
0.00314376
0.00314387
0.00314397
0.00314407
0.00314417
0.00314427
0.00314436
0.00314446
0.00314455
0.00314464
0.00314472
0.00314481
0.00314489
0.00314497
0.00314505
0.00314512
0.00314519
0.00314525
0.00314531
0.00314537
0.00314542
0.00314547
0.00314551
0.00314555
0.00314559
0.00314561
0.00314564
0.00314565
0.00314566
0.00314567
0.00314567
0.00314566
0.00314564
0.00314562
0.00314559
0.00314555
0.00314551
0.00314545
0.00314539
0.00314532
0.00314525
0.00314516
0.00314506
0.00314496
0.00314485
0.00314472
0.00314459
0.00314444
0.00314429
0.00314412
0.00314395
0.00314376
0.00314356
0.00314335
0.00314313
0.0031429
0.00314265
0.0031424
0.00314213
0.00314184
0.00314155
0.00314124
0.00314091
0.00314058
0.00314023
0.00313986
0.00313948
0.00313909
0.00313868
0.00313825
0.00313782
0.00313736
0.00313689
0.0031364
0.0031359
0.00313538
0.00313485
0.00313429
0.00313372
0.00313314
0.00313253
0.00313191
0.00313127
0.00313061
0.00312993
0.00312923
0.00312852
0.00312779
0.00312703
0.00312626
0.00312547
0.00312465
0.00312382
0.00312297
0.00312209
0.0031212
0.00312028
0.00311934
0.00311838
0.0031174
0.0031164
0.00311537
0.00311433
0.00311325
0.00311216
0.00311104
0.0031099
0.00310874
0.00310755
0.00310634
0.0031051
0.00310384
0.00310256
0.00310125
0.00309991
0.00309855
0.00309717
0.00309575
0.00309432
0.00309285
0.00309136
0.00308984
0.0030883
0.00308673
0.00308513
0.00308351
0.00308185
0.00308017
0.00307846
0.00307673
0.00307496
0.00307316
0.00307134
0.00306949
0.00306761
0.0030657
0.00306376
0.00306178
0.00305978
0.00305775
0.00305569
0.0030536
0.00305148
0.00304932
0.00304713
0.00304492
0.00304267
0.00304039
0.00303807
0.00303573
0.00303335
0.00303094
0.0030285
0.00302602
0.00302351
0.00302097
0.00301839
0.00301578
0.00301313
0.00301045
0.00300774
0.00300499
0.00300221
0.00299939
0.00299653
0.00299364
0.00299072
0.00298776
0.00298476
0.00298173
0.00297866
0.00297555
0.00297241
0.00296922
0.00296601
0.00296275
0.00295946
0.00295613
0.00295276
0.00294935
0.00294591
0.00294242
0.0029389
0.00293534
0.00293174
0.0029281
0.00292442
0.0029207
0.00291694
0.00291314
0.0029093
0.00290542
0.0029015
0.00289754
0.00289354
0.00288949
0.00288541
0.00288128
0.00287711
0.0028729
0.00286865
0.00286435
0.00286002
0.00285564
0.00285121
0.00284675
0.00284224
0.00283768
0.00283309
0.00282845
0.00282376
0.00281903
0.00281426
0.00280944
0.00280458
0.00279967
0.00279472
0.00278973
0.00278468
0.00277959
0.00277446
0.00276928
0.00276405
0.00275878
0.00275346
0.00274809
0.00274268
0.00273722
0.00273171
0.00272616
0.00272055
0.0027149
0.0027092
0.00270346
0.00269766
0.00269182
0.00268592
0.00267998
0.00267399
0.00266795
0.00266186
0.00265572
0.00264953
0.00264329
0.002637
0.00263067
0.00262427
0.00261783
0.00261134
0.0026048
0.00259821
0.00259156
0.00258486
0.00257811
0.00257131
0.00256446
0.00255755
0.00255059
0.00254358
0.00253652
0.0025294
0.00252223
0.00251501
0.00250773
0.0025004
0.00249301
0.00248557
0.00247808
0.00247053
0.00246293
0.00245527
0.00244756
0.00243979
0.00243197
0.00242409
0.00241615
0.00240816
0.00240011
0.00239201
0.00238385
0.00237563
0.00236735
0.00235902
0.00235063
0.00234219
0.00233368
0.00232512
0.0023165
0.00230782
0.00229908
0.00229029
0.00228143
0.00227252
0.00226355
0.00225452
0.00224542
0.00223627
0.00222706
0.00221779
0.00220846
0.00219906
0.00218961
0.0021801
0.00217052
0.00216088
0.00215118
0.00214142
0.0021316
0.00212172
0.00211177
0.00210176
0.00209169
0.00208155
0.00207135
0.00206109
0.00205077
0.00204038
0.00202992
0.00201941
0.00200882
0.00199818
0.00198747
0.00197669
0.00196585
0.00195494
0.00194397
0.00193293
0.00192182
0.00191065
0.00189934
0.00188794
0.00187647
0.00186495
0.00185336
0.0018417
0.00182998
0.00181819
0.00180633
0.00179441
0.00178242
0.00177036
0.00175823
0.00174603
0.00173377
0.00172144
0.00170904
0.00169658
0.00168405
0.00167146
0.0016588
0.00164607
0.00163328
0.00162043
0.00160752
0.00159454
0.0015815
0.00156839
0.00155523
0.001542
0.00152871
0.00151535
0.00150193
0.00148845
0.0014749
0.00146128
0.0014476
0.00143384
0.00142001
0.0014061
0.00139211
0.00137804
0.00136388
0.00134964
0.00133522
0.00132073
0.00130616
0.00129151
0.00127677
0.00126196
0.00124707
0.0012321
0.00121705
0.00120192
0.0011867
0.0011714
0.00115603
0.00114057
0.00112502
0.0011094
0.00109369
0.0010779
0.00106202
0.00104606
0.00103001
0.00101389
0.000997672
0.000981374
0.00096499
0.00094852
0.000931965
0.000915323
0.000898596
0.000881781
0.000864881
0.000847893
0.000830819
0.000813658
0.000796409
0.000779074
0.000761652
0.000744142
0.000726546
0.000708863
0.000691094
0.000673239
0.000655298
0.000637272
0.000619162
0.000600969
0.000582694
0.000564338
0.000545903
0.00052739
0.000508281
0.000488361
0.000468234
0.000447926
0.000427443
0.000406791
0.000385996
0.000365092
0.000344125
0.000323149
0.000302231
0.000281443
0.000260869
0.000240602
0.000220743
0.000201404
0.000182698
0.000164695
0.000147438
0.000131621
0.00011962
0.000100461
8.20151e-05
6.49008e-05
4.94528e-05
3.33558e-05
1.15566e-05
9.25337e-07
)
;

boundaryField
{
    top_wall
    {
        type            nutLowReWallFunction;
        value           uniform 0;
    }
    inlet
    {
        type            cyclic;
    }
    bot_wall
    {
        type            nutLowReWallFunction;
        value           uniform 0;
    }
    outlet
    {
        type            cyclic;
    }
    frontAndBack
    {
        type            empty;
    }
}


// ************************************************************************* //
