/*--------------------------------*- C++ -*----------------------------------*\
| =========                 |                                                 |
| \\      /  F ield         | OpenFOAM: The Open Source CFD Toolbox           |
|  \\    /   O peration     | Version:  2312                                  |
|   \\  /    A nd           | Website:  www.openfoam.com                      |
|    \\/     M anipulation  |                                                 |
\*---------------------------------------------------------------------------*/
FoamFile
{
    version     2.0;
    format      ascii;
    arch        "LSB;label=32;scalar=64";
    class       volScalarField;
    location    "13.01";
    object      nut;
}
// * * * * * * * * * * * * * * * * * * * * * * * * * * * * * * * * * * * * * //

dimensions      [0 2 -1 0 0 0 0];

internalField   nonuniform List<scalar> 
1000
(
1.57098e-05
3.92362e-05
6.92262e-05
0.000100483
0.000131985
0.0001634
0.000194593
0.000225503
0.000256102
0.000286376
0.000316318
0.000345925
0.000375198
0.000404138
0.000432747
0.000461029
0.000488985
0.000516619
0.000543933
0.000570932
0.000597618
0.000623994
0.000650063
0.000675828
0.000701293
0.00072646
0.000751333
0.000775913
0.000800204
0.000824209
0.00084793
0.00087137
0.000894531
0.000917417
0.00094003
0.000962373
0.000984447
0.00100626
0.0010278
0.00104909
0.00107011
0.00109089
0.0011114
0.00113167
0.00115169
0.00117146
0.00119099
0.00121028
0.00122932
0.00124813
0.00126671
0.00128505
0.00130316
0.00132104
0.00133869
0.00135612
0.00137333
0.00139031
0.00140708
0.00142363
0.00143997
0.00145609
0.001472
0.00148771
0.0015032
0.0015185
0.00153358
0.00154847
0.00156316
0.00157765
0.00159194
0.00160604
0.00161995
0.00163367
0.00164719
0.00166053
0.00167369
0.00168666
0.00169944
0.00171205
0.00172448
0.00173673
0.0017488
0.0017607
0.00177242
0.00178398
0.00179536
0.00180657
0.00181762
0.0018285
0.00183922
0.00184977
0.00186017
0.0018704
0.00188047
0.00189038
0.00190014
0.00190975
0.0019192
0.00192849
0.00193764
0.00194663
0.00195548
0.00196418
0.00197273
0.00198113
0.00198939
0.00199751
0.00200549
0.00201332
0.00202102
0.00202857
0.00203599
0.00204327
0.00205042
0.00205743
0.0020643
0.00207104
0.00207766
0.00208413
0.00209048
0.0020967
0.0021028
0.00210876
0.0021146
0.00212031
0.00212589
0.00213136
0.0021367
0.00214191
0.00214701
0.00215198
0.00215683
0.00216157
0.00216618
0.00217068
0.00217506
0.00217932
0.00218347
0.0021875
0.00219142
0.00219522
0.00219891
0.00220249
0.00220595
0.0022093
0.00221255
0.00221568
0.0022187
0.00222162
0.00222443
0.00222712
0.00222972
0.0022322
0.00223458
0.00223685
0.00223902
0.00224109
0.00224305
0.0022449
0.00224666
0.00224831
0.00224986
0.00225131
0.00225266
0.00225391
0.00225506
0.00225611
0.00225706
0.00225791
0.00225867
0.00225933
0.00225989
0.00226035
0.00226072
0.002261
0.00226118
0.00226126
0.00226126
0.00226116
0.00226096
0.00226068
0.0022603
0.00225983
0.00225928
0.00225863
0.00225789
0.00225706
0.00225615
0.00225515
0.00225406
0.00225288
0.00225161
0.00225027
0.00224883
0.00224731
0.00224571
0.00224402
0.00224225
0.0022404
0.00223847
0.00223645
0.00223435
0.00223218
0.00222992
0.00222759
0.00222518
0.00222269
0.00222012
0.00221748
0.00221476
0.00221197
0.00220911
0.00220617
0.00220315
0.00220007
0.00219691
0.00219369
0.00219039
0.00218703
0.00218359
0.00218009
0.00217652
0.00217289
0.00216919
0.00216543
0.0021616
0.00215771
0.00215376
0.00214975
0.00214567
0.00214154
0.00213735
0.0021331
0.0021288
0.00212444
0.00212002
0.00211555
0.00211103
0.00210645
0.00210183
0.00209715
0.00209243
0.00208765
0.00208283
0.00207797
0.00207305
0.0020681
0.0020631
0.00205806
0.00205297
0.00204785
0.00204269
0.00203749
0.00203225
0.00202698
0.00202167
0.00201633
0.00201095
0.00200555
0.00200011
0.00199465
0.00198915
0.00198363
0.00197808
0.00197251
0.00196692
0.0019613
0.00195566
0.00195
0.00194432
0.00193862
0.00193291
0.00192718
0.00192143
0.00191568
0.0019099
0.00190412
0.00189833
0.00189253
0.00188672
0.00188091
0.00187509
0.00186926
0.00186343
0.0018576
0.00185177
0.00184594
0.00184011
0.00183428
0.00182846
0.00182264
0.00181683
0.00181102
0.00180522
0.00179943
0.00179365
0.00178788
0.00178212
0.00177638
0.00177065
0.00176494
0.00175924
0.00175356
0.0017479
0.00174226
0.00173664
0.00173103
0.00172546
0.0017199
0.00171437
0.00170886
0.00170338
0.00169793
0.00169251
0.00168711
0.00168174
0.0016764
0.0016711
0.00166582
0.00166058
0.00165537
0.0016502
0.00164506
0.00163996
0.00163489
0.00162986
0.00162487
0.00161991
0.001615
0.00161012
0.00160529
0.00160049
0.00159574
0.00159103
0.00158636
0.00158174
0.00157715
0.00157261
0.00156812
0.00156367
0.00155926
0.00155491
0.00155059
0.00154632
0.0015421
0.00153793
0.0015338
0.00152972
0.00152569
0.0015217
0.00151776
0.00151388
0.00151003
0.00150624
0.0015025
0.0014988
0.00149515
0.00149155
0.001488
0.0014845
0.00148105
0.00147764
0.00147429
0.00147098
0.00146772
0.00146451
0.00146135
0.00145824
0.00145517
0.00145215
0.00144918
0.00144626
0.00144338
0.00144055
0.00143777
0.00143503
0.00143234
0.0014297
0.0014271
0.00142454
0.00142203
0.00141957
0.00141715
0.00141478
0.00141244
0.00141015
0.00140791
0.0014057
0.00140354
0.00140142
0.00139934
0.0013973
0.00139531
0.00139335
0.00139143
0.00138955
0.00138771
0.0013859
0.00138414
0.00138241
0.00138072
0.00137906
0.00137744
0.00137585
0.0013743
0.00137279
0.0013713
0.00136985
0.00136844
0.00136705
0.0013657
0.00136438
0.00136309
0.00136183
0.0013606
0.0013594
0.00135822
0.00135708
0.00135596
0.00135487
0.00135381
0.00135277
0.00135176
0.00135078
0.00134982
0.00134889
0.00134798
0.00134709
0.00134623
0.00134538
0.00134457
0.00134377
0.00134299
0.00134224
0.00134151
0.00134079
0.0013401
0.00133943
0.00133877
0.00133813
0.00133752
0.00133692
0.00133633
0.00133577
0.00133522
0.00133469
0.00133417
0.00133367
0.00133319
0.00133272
0.00133226
0.00133182
0.00133139
0.00133098
0.00133058
0.00133019
0.00132982
0.00132946
0.00132911
0.00132878
0.00132845
0.00132814
0.00132784
0.00132755
0.00132727
0.001327
0.00132674
0.0013265
0.00132626
0.00132603
0.00132581
0.0013256
0.0013254
0.00132521
0.00132503
0.00132486
0.00132469
0.00132454
0.00132439
0.00132425
0.00132411
0.00132399
0.00132387
0.00132376
0.00132366
0.00132357
0.00132348
0.0013234
0.00132333
0.00132326
0.0013232
0.00132315
0.0013231
0.00132306
0.00132303
0.001323
0.00132298
0.00132297
0.00132296
0.00132296
0.00132297
0.00132298
0.001323
0.00132303
0.00132306
0.0013231
0.00132315
0.0013232
0.00132326
0.00132332
0.0013234
0.00132348
0.00132357
0.00132366
0.00132376
0.00132387
0.00132399
0.00132411
0.00132425
0.00132439
0.00132453
0.00132469
0.00132486
0.00132503
0.00132521
0.0013254
0.0013256
0.00132581
0.00132603
0.00132626
0.0013265
0.00132674
0.001327
0.00132727
0.00132755
0.00132784
0.00132814
0.00132845
0.00132878
0.00132911
0.00132946
0.00132982
0.00133019
0.00133058
0.00133098
0.00133139
0.00133182
0.00133226
0.00133271
0.00133318
0.00133367
0.00133417
0.00133469
0.00133522
0.00133577
0.00133633
0.00133691
0.00133752
0.00133813
0.00133877
0.00133942
0.0013401
0.00134079
0.00134151
0.00134224
0.00134299
0.00134377
0.00134456
0.00134538
0.00134622
0.00134709
0.00134798
0.00134889
0.00134982
0.00135078
0.00135176
0.00135277
0.00135381
0.00135487
0.00135596
0.00135708
0.00135822
0.00135939
0.0013606
0.00136183
0.00136309
0.00136438
0.0013657
0.00136705
0.00136844
0.00136985
0.0013713
0.00137279
0.0013743
0.00137585
0.00137744
0.00137906
0.00138072
0.00138241
0.00138414
0.0013859
0.00138771
0.00138955
0.00139143
0.00139335
0.0013953
0.0013973
0.00139934
0.00140142
0.00140354
0.0014057
0.00140791
0.00141015
0.00141244
0.00141478
0.00141715
0.00141957
0.00142203
0.00142454
0.0014271
0.0014297
0.00143234
0.00143503
0.00143777
0.00144055
0.00144338
0.00144626
0.00144918
0.00145215
0.00145517
0.00145824
0.00146135
0.00146451
0.00146772
0.00147098
0.00147429
0.00147764
0.00148105
0.0014845
0.001488
0.00149155
0.00149515
0.0014988
0.0015025
0.00150624
0.00151003
0.00151388
0.00151776
0.0015217
0.00152569
0.00152972
0.0015338
0.00153793
0.0015421
0.00154632
0.00155059
0.0015549
0.00155926
0.00156367
0.00156812
0.00157261
0.00157715
0.00158173
0.00158636
0.00159103
0.00159574
0.00160049
0.00160529
0.00161012
0.001615
0.00161991
0.00162487
0.00162986
0.00163489
0.00163996
0.00164506
0.0016502
0.00165537
0.00166058
0.00166582
0.0016711
0.0016764
0.00168174
0.00168711
0.0016925
0.00169793
0.00170338
0.00170886
0.00171437
0.0017199
0.00172545
0.00173103
0.00173663
0.00174226
0.0017479
0.00175356
0.00175924
0.00176494
0.00177065
0.00177638
0.00178212
0.00178788
0.00179365
0.00179943
0.00180522
0.00181102
0.00181682
0.00182264
0.00182846
0.00183428
0.00184011
0.00184594
0.00185177
0.0018576
0.00186343
0.00186926
0.00187508
0.0018809
0.00188672
0.00189253
0.00189833
0.00190412
0.0019099
0.00191567
0.00192143
0.00192718
0.00193291
0.00193862
0.00194432
0.00195
0.00195566
0.0019613
0.00196691
0.00197251
0.00197808
0.00198363
0.00198915
0.00199464
0.00200011
0.00200555
0.00201095
0.00201633
0.00202167
0.00202697
0.00203225
0.00203748
0.00204269
0.00204785
0.00205297
0.00205805
0.0020631
0.00206809
0.00207305
0.00207796
0.00208283
0.00208765
0.00209242
0.00209715
0.00210183
0.00210645
0.00211103
0.00211555
0.00212002
0.00212443
0.0021288
0.0021331
0.00213735
0.00214154
0.00214567
0.00214974
0.00215376
0.00215771
0.0021616
0.00216542
0.00216919
0.00217289
0.00217652
0.00218009
0.00218359
0.00218702
0.00219039
0.00219369
0.00219691
0.00220007
0.00220315
0.00220616
0.0022091
0.00221197
0.00221476
0.00221748
0.00222012
0.00222269
0.00222518
0.00222759
0.00222992
0.00223218
0.00223435
0.00223645
0.00223846
0.0022404
0.00224225
0.00224402
0.00224571
0.00224731
0.00224883
0.00225026
0.00225161
0.00225288
0.00225406
0.00225515
0.00225615
0.00225706
0.00225789
0.00225863
0.00225928
0.00225983
0.0022603
0.00226068
0.00226096
0.00226116
0.00226126
0.00226126
0.00226118
0.002261
0.00226072
0.00226035
0.00225989
0.00225933
0.00225867
0.00225791
0.00225706
0.00225611
0.00225506
0.00225391
0.00225266
0.00225131
0.00224986
0.00224831
0.00224666
0.0022449
0.00224305
0.00224109
0.00223902
0.00223685
0.00223458
0.0022322
0.00222972
0.00222713
0.00222443
0.00222162
0.00221871
0.00221568
0.00221255
0.00220931
0.00220595
0.00220249
0.00219891
0.00219522
0.00219142
0.0021875
0.00218347
0.00217932
0.00217506
0.00217068
0.00216618
0.00216157
0.00215683
0.00215198
0.00214701
0.00214191
0.0021367
0.00213136
0.0021259
0.00212031
0.0021146
0.00210876
0.0021028
0.0020967
0.00209048
0.00208414
0.00207766
0.00207105
0.0020643
0.00205743
0.00205042
0.00204327
0.00203599
0.00202857
0.00202102
0.00201332
0.00200549
0.00199751
0.00198939
0.00198113
0.00197273
0.00196418
0.00195548
0.00194663
0.00193764
0.00192849
0.0019192
0.00190975
0.00190014
0.00189038
0.00188047
0.0018704
0.00186017
0.00184977
0.00183922
0.0018285
0.00181762
0.00180657
0.00179536
0.00178398
0.00177242
0.0017607
0.0017488
0.00173673
0.00172448
0.00171205
0.00169944
0.00168666
0.00167369
0.00166053
0.00164719
0.00163367
0.00161995
0.00160604
0.00159194
0.00157765
0.00156316
0.00154847
0.00153358
0.0015185
0.0015032
0.00148771
0.001472
0.00145609
0.00143997
0.00142363
0.00140708
0.00139031
0.00137333
0.00135612
0.00133869
0.00132104
0.00130316
0.00128505
0.00126671
0.00124813
0.00122932
0.00121028
0.00119099
0.00117146
0.00115169
0.00113167
0.0011114
0.00109089
0.00107011
0.00104909
0.0010278
0.00100626
0.000984447
0.000962373
0.00094003
0.000917417
0.000894531
0.00087137
0.00084793
0.000824209
0.000800204
0.000775913
0.000751333
0.000726461
0.000701293
0.000675829
0.000650063
0.000623994
0.000597618
0.000570932
0.000543933
0.000516619
0.000488985
0.000461029
0.000432747
0.000404138
0.000375198
0.000345925
0.000316318
0.000286376
0.000256102
0.000225503
0.000194593
0.0001634
0.000131985
0.000100483
6.92262e-05
3.92362e-05
1.57099e-05
)
;

boundaryField
{
    top_wall
    {
        type            nutLowReWallFunction;
        value           uniform 0;
    }
    inlet
    {
        type            cyclic;
    }
    bot_wall
    {
        type            nutLowReWallFunction;
        value           uniform 0;
    }
    outlet
    {
        type            cyclic;
    }
    frontAndBack
    {
        type            empty;
    }
}


// ************************************************************************* //
