# Wall shear stress
# Time          	patch           	min             	max             
0.5             	top_wall	(-4.42990583e-03 2.35221300e-28 0.00000000e+00)	(-4.42990583e-03 2.35221300e-28 0.00000000e+00)
0.5             	bot_wall	(-4.42990835e-03 2.86767027e-20 0.00000000e+00)	(-4.42990835e-03 2.86767027e-20 0.00000000e+00)
1               	top_wall	(-3.94800810e-03 1.27938720e-28 0.00000000e+00)	(-3.94800810e-03 1.27938720e-28 0.00000000e+00)
1               	bot_wall	(-3.94800398e-03 -5.83945932e-20 0.00000000e+00)	(-3.94800398e-03 -5.83945932e-20 0.00000000e+00)
1.5             	top_wall	(-3.61928982e-03 7.85687775e-29 0.00000000e+00)	(-3.61928982e-03 7.85687775e-29 0.00000000e+00)
1.5             	bot_wall	(-3.61928601e-03 -1.87261710e-20 0.00000000e+00)	(-3.61928601e-03 -1.87261710e-20 0.00000000e+00)
2               	top_wall	(-3.40210349e-03 -5.03460545e-28 0.00000000e+00)	(-3.40210349e-03 -5.03460545e-28 0.00000000e+00)
2               	bot_wall	(-3.40210087e-03 -2.36994740e-20 0.00000000e+00)	(-3.40210087e-03 -2.36994740e-20 0.00000000e+00)
2.5             	top_wall	(-3.24527999e-03 -5.49626536e-28 0.00000000e+00)	(-3.24527999e-03 -5.49626536e-28 0.00000000e+00)
2.5             	bot_wall	(-3.24527842e-03 9.82546647e-20 0.00000000e+00)	(-3.24527842e-03 9.82546647e-20 0.00000000e+00)
3               	top_wall	(-3.12573308e-03 -1.34230745e-27 0.00000000e+00)	(-3.12573308e-03 -1.34230745e-27 0.00000000e+00)
3               	bot_wall	(-3.12573228e-03 2.07036248e-20 0.00000000e+00)	(-3.12573228e-03 2.07036248e-20 0.00000000e+00)
3.5             	top_wall	(-3.03122516e-03 -2.15173894e-27 0.00000000e+00)	(-3.03122516e-03 -2.15173894e-27 0.00000000e+00)
3.5             	bot_wall	(-3.03122491e-03 2.24564971e-20 0.00000000e+00)	(-3.03122491e-03 2.24564971e-20 0.00000000e+00)
4               	top_wall	(-2.95427157e-03 -3.21013849e-27 0.00000000e+00)	(-2.95427157e-03 -3.21013849e-27 0.00000000e+00)
4               	bot_wall	(-2.95427170e-03 1.58377071e-20 0.00000000e+00)	(-2.95427170e-03 1.58377071e-20 0.00000000e+00)
4.5             	top_wall	(-2.89043748e-03 -3.97621792e-27 0.00000000e+00)	(-2.89043748e-03 -3.97621792e-27 0.00000000e+00)
4.5             	bot_wall	(-2.89043784e-03 -2.24554294e-21 0.00000000e+00)	(-2.89043784e-03 -2.24554294e-21 0.00000000e+00)
5               	top_wall	(-2.83666961e-03 -4.09434223e-27 0.00000000e+00)	(-2.83666961e-03 -4.09434223e-27 0.00000000e+00)
5               	bot_wall	(-2.83667013e-03 3.02216166e-20 0.00000000e+00)	(-2.83667013e-03 3.02216166e-20 0.00000000e+00)
5.5             	top_wall	(-2.79065518e-03 -1.87598875e-27 0.00000000e+00)	(-2.79065518e-03 -1.87598875e-27 0.00000000e+00)
5.5             	bot_wall	(-2.79065579e-03 -6.16041528e-20 0.00000000e+00)	(-2.79065579e-03 -6.16041528e-20 0.00000000e+00)
6               	top_wall	(-2.75098386e-03 3.50225739e-27 0.00000000e+00)	(-2.75098386e-03 3.50225739e-27 0.00000000e+00)
6               	bot_wall	(-2.75098454e-03 7.47274329e-21 0.00000000e+00)	(-2.75098454e-03 7.47274329e-21 0.00000000e+00)
6.5             	top_wall	(-2.71650039e-03 1.61571586e-26 0.00000000e+00)	(-2.71650039e-03 1.61571586e-26 0.00000000e+00)
6.5             	bot_wall	(-2.71650111e-03 1.88001474e-20 0.00000000e+00)	(-2.71650111e-03 1.88001474e-20 0.00000000e+00)
7               	top_wall	(-2.68631006e-03 4.23282167e-26 0.00000000e+00)	(-2.68631006e-03 4.23282167e-26 0.00000000e+00)
7               	bot_wall	(-2.68631081e-03 2.59088964e-20 0.00000000e+00)	(-2.68631081e-03 2.59088964e-20 0.00000000e+00)
7.5             	top_wall	(-2.65965837e-03 9.11012196e-26 0.00000000e+00)	(-2.65965837e-03 9.11012196e-26 0.00000000e+00)
7.5             	bot_wall	(-2.65965913e-03 1.66767787e-20 0.00000000e+00)	(-2.65965913e-03 1.66767787e-20 0.00000000e+00)
8               	top_wall	(-2.63607390e-03 1.73854105e-25 0.00000000e+00)	(-2.63607390e-03 1.73854105e-25 0.00000000e+00)
8               	bot_wall	(-2.63607467e-03 9.02017741e-20 0.00000000e+00)	(-2.63607467e-03 9.02017741e-20 0.00000000e+00)
8.5             	top_wall	(-2.61512523e-03 3.03100911e-25 0.00000000e+00)	(-2.61512523e-03 3.03100911e-25 0.00000000e+00)
8.5             	bot_wall	(-2.61512600e-03 -4.51476612e-20 0.00000000e+00)	(-2.61512600e-03 -4.51476612e-20 0.00000000e+00)
9               	top_wall	(-2.59646046e-03 4.94166528e-25 0.00000000e+00)	(-2.59646046e-03 4.94166528e-25 0.00000000e+00)
9               	bot_wall	(-2.59646123e-03 -2.57697437e-20 0.00000000e+00)	(-2.59646123e-03 -2.57697437e-20 0.00000000e+00)
9.5             	top_wall	(-2.57978926e-03 7.62163639e-25 0.00000000e+00)	(-2.57978926e-03 7.62163639e-25 0.00000000e+00)
9.5             	bot_wall	(-2.57979004e-03 -2.52505490e-20 0.00000000e+00)	(-2.57979004e-03 -2.52505490e-20 0.00000000e+00)
10              	top_wall	(-2.56487010e-03 1.12331869e-24 0.00000000e+00)	(-2.56487010e-03 1.12331869e-24 0.00000000e+00)
10              	bot_wall	(-2.56487087e-03 -8.80804530e-20 0.00000000e+00)	(-2.56487087e-03 -8.80804530e-20 0.00000000e+00)
10.5            	top_wall	(-2.55148551e-03 1.59332643e-24 0.00000000e+00)	(-2.55148551e-03 1.59332643e-24 0.00000000e+00)
10.5            	bot_wall	(-2.55148629e-03 5.95140147e-21 0.00000000e+00)	(-2.55148629e-03 5.95140147e-21 0.00000000e+00)
11              	top_wall	(-2.53945827e-03 2.18720339e-24 0.00000000e+00)	(-2.53945827e-03 2.18720339e-24 0.00000000e+00)
11              	bot_wall	(-2.53945905e-03 5.23389806e-20 0.00000000e+00)	(-2.53945905e-03 5.23389806e-20 0.00000000e+00)
11.5            	top_wall	(-2.52866126e-03 2.91837960e-24 0.00000000e+00)	(-2.52866126e-03 2.91837960e-24 0.00000000e+00)
11.5            	bot_wall	(-2.52866204e-03 -1.16297374e-19 0.00000000e+00)	(-2.52866204e-03 -1.16297374e-19 0.00000000e+00)
12              	top_wall	(-2.51897088e-03 3.80087030e-24 0.00000000e+00)	(-2.51897088e-03 3.80087030e-24 0.00000000e+00)
12              	bot_wall	(-2.51897167e-03 7.10709214e-21 0.00000000e+00)	(-2.51897167e-03 7.10709214e-21 0.00000000e+00)
12.5            	top_wall	(-2.51027963e-03 4.84518923e-24 0.00000000e+00)	(-2.51027963e-03 4.84518923e-24 0.00000000e+00)
12.5            	bot_wall	(-2.51028043e-03 -7.07190560e-20 0.00000000e+00)	(-2.51028043e-03 -7.07190560e-20 0.00000000e+00)
13              	top_wall	(-2.50249614e-03 6.06244215e-24 0.00000000e+00)	(-2.50249614e-03 6.06244215e-24 0.00000000e+00)
13              	bot_wall	(-2.50249695e-03 -3.67493657e-20 0.00000000e+00)	(-2.50249695e-03 -3.67493657e-20 0.00000000e+00)
13.5            	top_wall	(-2.49555207e-03 7.46051278e-24 0.00000000e+00)	(-2.49555207e-03 7.46051278e-24 0.00000000e+00)
13.5            	bot_wall	(-2.49555288e-03 -2.17185854e-20 0.00000000e+00)	(-2.49555288e-03 -2.17185854e-20 0.00000000e+00)
