/*--------------------------------*- C++ -*----------------------------------*\
| =========                 |                                                 |
| \\      /  F ield         | OpenFOAM: The Open Source CFD Toolbox           |
|  \\    /   O peration     | Version:  2312                                  |
|   \\  /    A nd           | Website:  www.openfoam.com                      |
|    \\/     M anipulation  |                                                 |
\*---------------------------------------------------------------------------*/
FoamFile
{
    version     2.0;
    format      ascii;
    arch        "LSB;label=32;scalar=64";
    class       volScalarField;
    location    "48.6";
    object      k;
}
// * * * * * * * * * * * * * * * * * * * * * * * * * * * * * * * * * * * * * //

dimensions      [0 2 -2 0 0 0 0];

internalField   nonuniform List<scalar> 
4000
(
0.00134578
0.00182768
0.00243108
0.00301906
0.00353464
0.00397109
0.00433876
0.00465042
0.00491712
0.00514762
0.00534868
0.00552555
0.00568231
0.00582216
0.00594767
0.00606088
0.00616349
0.00625686
0.00634214
0.0064203
0.00649214
0.00655835
0.00661952
0.00667616
0.00672871
0.00677755
0.00682302
0.00686541
0.00690498
0.00694197
0.00697658
0.007009
0.00703938
0.00706789
0.00709464
0.00711977
0.00714338
0.00716557
0.00718643
0.00720605
0.0072245
0.00724186
0.00725818
0.00727352
0.00728794
0.0073015
0.00731422
0.00732617
0.00733738
0.00734788
0.00735771
0.00736691
0.0073755
0.00738351
0.00739097
0.0073979
0.00740433
0.00741028
0.00741577
0.00742081
0.00742543
0.00742964
0.00743346
0.0074369
0.00743998
0.00744272
0.00744512
0.0074472
0.00744897
0.00745043
0.00745161
0.00745251
0.00745314
0.00745351
0.00745362
0.0074535
0.00745313
0.00745254
0.00745172
0.00745069
0.00744945
0.00744801
0.00744638
0.00744455
0.00744254
0.00744035
0.00743798
0.00743544
0.00743274
0.00742988
0.00742686
0.00742369
0.00742037
0.0074169
0.0074133
0.00740955
0.00740567
0.00740167
0.00739753
0.00739327
0.00738889
0.00738439
0.00737977
0.00737504
0.0073702
0.00736525
0.0073602
0.00735504
0.00734978
0.00734443
0.00733897
0.00733342
0.00732778
0.00732205
0.00731623
0.00731032
0.00730432
0.00729824
0.00729208
0.00728584
0.00727952
0.00727313
0.00726665
0.00726011
0.00725349
0.0072468
0.00724004
0.00723321
0.00722631
0.00721934
0.00721232
0.00720522
0.00719807
0.00719085
0.00718357
0.00717624
0.00716884
0.00716139
0.00715388
0.00714632
0.0071387
0.00713103
0.0071233
0.00711553
0.0071077
0.00709982
0.0070919
0.00708392
0.0070759
0.00706783
0.00705972
0.00705156
0.00704336
0.00703511
0.00702682
0.00701849
0.00701012
0.00700171
0.00699325
0.00698476
0.00697623
0.00696766
0.00695905
0.00695041
0.00694173
0.00693302
0.00692427
0.00691548
0.00690666
0.00689781
0.00688893
0.00688001
0.00687106
0.00686208
0.00685307
0.00684403
0.00683496
0.00682586
0.00681673
0.00680758
0.00679839
0.00678918
0.00677994
0.00677068
0.00676139
0.00675208
0.00674274
0.00673337
0.00672399
0.00671457
0.00670514
0.00669568
0.0066862
0.0066767
0.00666718
0.00665763
0.00664807
0.00663848
0.00662888
0.00661925
0.00660961
0.00659995
0.00659026
0.00658056
0.00657085
0.00656111
0.00655136
0.00654159
0.00653181
0.00652201
0.00651219
0.00650236
0.00649252
0.00648266
0.00647278
0.00646289
0.00645299
0.00644307
0.00643315
0.0064232
0.00641325
0.00640329
0.00639331
0.00638332
0.00637332
0.00636331
0.00635329
0.00634326
0.00633322
0.00632317
0.00631311
0.00630304
0.00629296
0.00628287
0.00627278
0.00626267
0.00625256
0.00624245
0.00623232
0.00622219
0.00621205
0.00620191
0.00619176
0.0061816
0.00617144
0.00616128
0.00615111
0.00614093
0.00613075
0.00612056
0.00611038
0.00610018
0.00608999
0.00607979
0.00606959
0.00605938
0.00604917
0.00603897
0.00602875
0.00601854
0.00600833
0.00599811
0.00598789
0.00597768
0.00596746
0.00595724
0.00594702
0.0059368
0.00592658
0.00591637
0.00590615
0.00589593
0.00588572
0.00587551
0.0058653
0.00585509
0.00584488
0.00583467
0.00582447
0.00581427
0.00580407
0.00579388
0.00578369
0.0057735
0.00576332
0.00575314
0.00574296
0.00573279
0.00572263
0.00571246
0.00570231
0.00569216
0.00568201
0.00567187
0.00566173
0.00565161
0.00564148
0.00563137
0.00562126
0.00561115
0.00560106
0.00559097
0.00558088
0.00557081
0.00556074
0.00555068
0.00554063
0.00553059
0.00552055
0.00551052
0.00550051
0.0054905
0.0054805
0.0054705
0.00546052
0.00545055
0.00544059
0.00543063
0.00542069
0.00541076
0.00540083
0.00539092
0.00538102
0.00537113
0.00536125
0.00535138
0.00534152
0.00533167
0.00532184
0.00531202
0.0053022
0.00529241
0.00528262
0.00527284
0.00526308
0.00525333
0.00524359
0.00523387
0.00522416
0.00521446
0.00520477
0.0051951
0.00518544
0.0051758
0.00516617
0.00515655
0.00514695
0.00513736
0.00512779
0.00511823
0.00510868
0.00509915
0.00508964
0.00508014
0.00507065
0.00506118
0.00505173
0.00504229
0.00503287
0.00502346
0.00501407
0.00500469
0.00499533
0.00498599
0.00497666
0.00496735
0.00495806
0.00494878
0.00493952
0.00493027
0.00492105
0.00491184
0.00490264
0.00489347
0.00488431
0.00487517
0.00486605
0.00485694
0.00484785
0.00483878
0.00482973
0.0048207
0.00481168
0.00480269
0.00479371
0.00478475
0.0047758
0.00476688
0.00475798
0.00474909
0.00474022
0.00473138
0.00472255
0.00471374
0.00470495
0.00469617
0.00468742
0.00467869
0.00466998
0.00466128
0.00465261
0.00464396
0.00463532
0.00462671
0.00461811
0.00460954
0.00460099
0.00459245
0.00458394
0.00457545
0.00456697
0.00455852
0.00455009
0.00454168
0.00453329
0.00452492
0.00451657
0.00450824
0.00449993
0.00449165
0.00448338
0.00447514
0.00446691
0.00445871
0.00445053
0.00444237
0.00443423
0.00442612
0.00441802
0.00440995
0.0044019
0.00439387
0.00438586
0.00437787
0.0043699
0.00436196
0.00435404
0.00434614
0.00433826
0.0043304
0.00432257
0.00431476
0.00430697
0.0042992
0.00429145
0.00428373
0.00427602
0.00426834
0.00426069
0.00425305
0.00424544
0.00423785
0.00423028
0.00422273
0.00421521
0.00420771
0.00420023
0.00419278
0.00418534
0.00417793
0.00417054
0.00416318
0.00415583
0.00414851
0.00414121
0.00413394
0.00412669
0.00411946
0.00411225
0.00410507
0.0040979
0.00409077
0.00408365
0.00407656
0.00406949
0.00406244
0.00405541
0.00404841
0.00404143
0.00403447
0.00402754
0.00402063
0.00401374
0.00400688
0.00400004
0.00399322
0.00398642
0.00397965
0.0039729
0.00396617
0.00395947
0.00395278
0.00394612
0.00393949
0.00393288
0.00392629
0.00391972
0.00391317
0.00390665
0.00390016
0.00389368
0.00388723
0.0038808
0.00387439
0.00386801
0.00386165
0.00385531
0.00384899
0.0038427
0.00383643
0.00383018
0.00382396
0.00381776
0.00381158
0.00380542
0.00379929
0.00379318
0.00378709
0.00378103
0.00377499
0.00376897
0.00376297
0.003757
0.00375104
0.00374512
0.00373921
0.00373333
0.00372746
0.00372163
0.00371581
0.00371002
0.00370425
0.0036985
0.00369277
0.00368707
0.00368139
0.00367573
0.00367009
0.00366448
0.00365889
0.00365332
0.00364777
0.00364225
0.00363674
0.00363126
0.00362581
0.00362037
0.00361496
0.00360956
0.0036042
0.00359885
0.00359352
0.00358822
0.00358294
0.00357768
0.00357244
0.00356722
0.00356203
0.00355686
0.00355171
0.00354658
0.00354147
0.00353639
0.00353132
0.00352628
0.00352126
0.00351626
0.00351129
0.00350633
0.0035014
0.00349648
0.00349159
0.00348672
0.00348187
0.00347705
0.00347224
0.00346745
0.00346269
0.00345795
0.00345323
0.00344853
0.00344385
0.00343919
0.00343455
0.00342994
0.00342534
0.00342077
0.00341621
0.00341168
0.00340717
0.00340268
0.00339821
0.00339376
0.00338933
0.00338492
0.00338053
0.00337616
0.00337181
0.00336749
0.00336318
0.00335889
0.00335463
0.00335038
0.00334615
0.00334195
0.00333776
0.0033336
0.00332945
0.00332533
0.00332122
0.00331714
0.00331307
0.00330902
0.003305
0.00330099
0.003297
0.00329304
0.00328909
0.00328516
0.00328125
0.00327736
0.00327349
0.00326964
0.00326581
0.003262
0.00325821
0.00325444
0.00325068
0.00324695
0.00324323
0.00323953
0.00323585
0.0032322
0.00322855
0.00322493
0.00322133
0.00321775
0.00321418
0.00321063
0.00320711
0.0032036
0.00320011
0.00319663
0.00319318
0.00318974
0.00318632
0.00318292
0.00317954
0.00317618
0.00317284
0.00316951
0.0031662
0.00316291
0.00315963
0.00315638
0.00315314
0.00314992
0.00314672
0.00314354
0.00314037
0.00313722
0.00313409
0.00313097
0.00312788
0.0031248
0.00312173
0.00311869
0.00311566
0.00311265
0.00310966
0.00310668
0.00310372
0.00310078
0.00309785
0.00309494
0.00309205
0.00308917
0.00308631
0.00308347
0.00308065
0.00307784
0.00307504
0.00307227
0.00306951
0.00306676
0.00306404
0.00306133
0.00305863
0.00305595
0.00305329
0.00305064
0.00304801
0.00304539
0.0030428
0.00304021
0.00303764
0.00303509
0.00303255
0.00303003
0.00302753
0.00302504
0.00302256
0.0030201
0.00301766
0.00301523
0.00301282
0.00301042
0.00300803
0.00300567
0.00300331
0.00300097
0.00299865
0.00299634
0.00299405
0.00299177
0.0029895
0.00298725
0.00298502
0.00298279
0.00298059
0.00297839
0.00297622
0.00297405
0.0029719
0.00296977
0.00296764
0.00296554
0.00296344
0.00296136
0.0029593
0.00295724
0.0029552
0.00295318
0.00295117
0.00294917
0.00294719
0.00294522
0.00294326
0.00294131
0.00293938
0.00293747
0.00293556
0.00293367
0.00293179
0.00292993
0.00292808
0.00292624
0.00292441
0.0029226
0.0029208
0.00291901
0.00291723
0.00291547
0.00291372
0.00291198
0.00291026
0.00290854
0.00290684
0.00290515
0.00290348
0.00290181
0.00290016
0.00289852
0.00289689
0.00289527
0.00289367
0.00289208
0.00289049
0.00288892
0.00288737
0.00288582
0.00288429
0.00288276
0.00288125
0.00287975
0.00287826
0.00287678
0.00287532
0.00287386
0.00287241
0.00287098
0.00286956
0.00286815
0.00286674
0.00286535
0.00286397
0.00286261
0.00286125
0.0028599
0.00285856
0.00285724
0.00285592
0.00285461
0.00285332
0.00285203
0.00285076
0.00284949
0.00284824
0.00284699
0.00284576
0.00284453
0.00284332
0.00284211
0.00284092
0.00283973
0.00283855
0.00283739
0.00283623
0.00283508
0.00283394
0.00283281
0.0028317
0.00283058
0.00282948
0.00282839
0.00282731
0.00282624
0.00282517
0.00282412
0.00282307
0.00282203
0.002821
0.00281998
0.00281897
0.00281797
0.00281697
0.00281599
0.00281501
0.00281404
0.00281308
0.00281213
0.00281118
0.00281025
0.00280932
0.0028084
0.00280749
0.00280659
0.00280569
0.00280481
0.00280393
0.00280306
0.00280219
0.00280134
0.00280049
0.00279965
0.00279882
0.00279799
0.00279717
0.00279636
0.00279556
0.00279477
0.00279398
0.0027932
0.00279242
0.00279166
0.0027909
0.00279015
0.0027894
0.00278866
0.00278793
0.00278721
0.00278649
0.00278578
0.00278507
0.00278438
0.00278369
0.002783
0.00278233
0.00278166
0.00278099
0.00278033
0.00277968
0.00277904
0.0027784
0.00277777
0.00277714
0.00277652
0.00277591
0.0027753
0.0027747
0.0027741
0.00277351
0.00277293
0.00277235
0.00277178
0.00277121
0.00277065
0.0027701
0.00276955
0.002769
0.00276846
0.00276793
0.00276741
0.00276688
0.00276637
0.00276586
0.00276535
0.00276485
0.00276436
0.00276387
0.00276338
0.00276291
0.00276243
0.00276196
0.0027615
0.00276104
0.00276059
0.00276014
0.00275969
0.00275925
0.00275882
0.00275839
0.00275796
0.00275754
0.00275713
0.00275672
0.00275631
0.00275591
0.00275551
0.00275512
0.00275473
0.00275435
0.00275397
0.00275359
0.00275322
0.00275285
0.00275249
0.00275213
0.00275178
0.00275143
0.00275108
0.00275074
0.0027504
0.00275007
0.00274974
0.00274941
0.00274909
0.00274877
0.00274846
0.00274815
0.00274784
0.00274754
0.00274724
0.00274694
0.00274665
0.00274636
0.00274608
0.00274579
0.00274552
0.00274524
0.00274497
0.0027447
0.00274444
0.00274418
0.00274392
0.00274367
0.00274342
0.00274317
0.00274292
0.00274268
0.00274244
0.00274221
0.00274198
0.00274175
0.00274152
0.0027413
0.00274108
0.00274086
0.00274065
0.00274044
0.00274023
0.00274003
0.00273982
0.00273962
0.00273943
0.00273923
0.00273904
0.00273885
0.00273867
0.00273848
0.0027383
0.00273812
0.00273795
0.00273778
0.00273761
0.00273744
0.00273727
0.00273711
0.00273695
0.00273679
0.00273664
0.00273648
0.00273633
0.00273618
0.00273604
0.00273589
0.00273575
0.00273561
0.00273547
0.00273534
0.0027352
0.00273507
0.00273494
0.00273482
0.00273469
0.00273457
0.00273445
0.00273433
0.00273421
0.0027341
0.00273399
0.00273387
0.00273377
0.00273366
0.00273355
0.00273345
0.00273335
0.00273325
0.00273315
0.00273305
0.00273296
0.00273287
0.00273278
0.00273269
0.0027326
0.00273251
0.00273243
0.00273235
0.00273227
0.00273219
0.00273211
0.00273203
0.00273196
0.00273188
0.00273181
0.00273174
0.00273167
0.0027316
0.00273154
0.00273147
0.00273141
0.00273135
0.00273129
0.00273123
0.00273117
0.00273112
0.00273106
0.00273101
0.00273095
0.0027309
0.00273085
0.0027308
0.00273076
0.00273071
0.00273067
0.00273062
0.00273058
0.00273054
0.0027305
0.00273046
0.00273042
0.00273038
0.00273035
0.00273031
0.00273028
0.00273024
0.00273021
0.00273018
0.00273015
0.00273012
0.00273009
0.00273007
0.00273004
0.00273002
0.00272999
0.00272997
0.00272995
0.00272993
0.0027299
0.00272988
0.00272987
0.00272985
0.00272983
0.00272981
0.0027298
0.00272978
0.00272977
0.00272976
0.00272975
0.00272973
0.00272972
0.00272971
0.0027297
0.00272969
0.00272969
0.00272968
0.00272967
0.00272967
0.00272966
0.00272966
0.00272965
0.00272965
0.00272965
0.00272965
0.00272964
0.00272964
0.00272964
0.00272964
0.00272964
0.00272965
0.00272965
0.00272965
0.00272965
0.00272966
0.00272966
0.00272967
0.00272967
0.00272968
0.00272968
0.00272969
0.0027297
0.00272971
0.00272971
0.00272972
0.00272973
0.00272974
0.00272975
0.00272976
0.00272977
0.00272978
0.0027298
0.00272981
0.00272982
0.00272983
0.00272985
0.00272986
0.00272987
0.00272989
0.0027299
0.00272992
0.00272993
0.00272995
0.00272997
0.00272998
0.00273
0.00273002
0.00273003
0.00273005
0.00273007
0.00273009
0.0027301
0.00273012
0.00273014
0.00273016
0.00273018
0.0027302
0.00273022
0.00273024
0.00273026
0.00273028
0.0027303
0.00273032
0.00273035
0.00273037
0.00273039
0.00273041
0.00273043
0.00273046
0.00273048
0.0027305
0.00273052
0.00273055
0.00273057
0.00273059
0.00273062
0.00273064
0.00273067
0.00273069
0.00273071
0.00273074
0.00273076
0.00273079
0.00273081
0.00273084
0.00273086
0.00273089
0.00273091
0.00273094
0.00273096
0.00273099
0.00273101
0.00273104
0.00273107
0.00273109
0.00273112
0.00273114
0.00273117
0.0027312
0.00273122
0.00273125
0.00273128
0.0027313
0.00273133
0.00273136
0.00273138
0.00273141
0.00273144
0.00273146
0.00273149
0.00273152
0.00273155
0.00273157
0.0027316
0.00273163
0.00273165
0.00273168
0.00273171
0.00273174
0.00273176
0.00273179
0.00273182
0.00273184
0.00273187
0.0027319
0.00273193
0.00273195
0.00273198
0.00273201
0.00273204
0.00273206
0.00273209
0.00273212
0.00273215
0.00273217
0.0027322
0.00273223
0.00273226
0.00273228
0.00273231
0.00273234
0.00273236
0.00273239
0.00273242
0.00273245
0.00273247
0.0027325
0.00273253
0.00273255
0.00273258
0.00273261
0.00273263
0.00273266
0.00273269
0.00273272
0.00273274
0.00273277
0.0027328
0.00273282
0.00273285
0.00273288
0.0027329
0.00273293
0.00273295
0.00273298
0.00273301
0.00273303
0.00273306
0.00273309
0.00273311
0.00273314
0.00273316
0.00273319
0.00273321
0.00273324
0.00273327
0.00273329
0.00273332
0.00273334
0.00273337
0.00273339
0.00273342
0.00273344
0.00273347
0.00273349
0.00273352
0.00273354
0.00273357
0.00273359
0.00273362
0.00273364
0.00273367
0.00273369
0.00273371
0.00273374
0.00273376
0.00273379
0.00273381
0.00273383
0.00273386
0.00273388
0.0027339
0.00273393
0.00273395
0.00273398
0.002734
0.00273402
0.00273404
0.00273407
0.00273409
0.00273411
0.00273414
0.00273416
0.00273418
0.0027342
0.00273423
0.00273425
0.00273427
0.00273429
0.00273431
0.00273434
0.00273436
0.00273438
0.0027344
0.00273442
0.00273444
0.00273447
0.00273449
0.00273451
0.00273453
0.00273455
0.00273457
0.00273459
0.00273461
0.00273463
0.00273465
0.00273467
0.00273469
0.00273471
0.00273474
0.00273476
0.00273478
0.00273479
0.00273481
0.00273483
0.00273485
0.00273487
0.00273489
0.00273491
0.00273493
0.00273495
0.00273497
0.00273499
0.00273501
0.00273503
0.00273504
0.00273506
0.00273508
0.0027351
0.00273512
0.00273514
0.00273515
0.00273517
0.00273519
0.00273521
0.00273523
0.00273524
0.00273526
0.00273528
0.0027353
0.00273531
0.00273533
0.00273535
0.00273536
0.00273538
0.0027354
0.00273541
0.00273543
0.00273545
0.00273546
0.00273548
0.0027355
0.00273551
0.00273553
0.00273554
0.00273556
0.00273558
0.00273559
0.00273561
0.00273562
0.00273564
0.00273565
0.00273567
0.00273568
0.0027357
0.00273571
0.00273573
0.00273574
0.00273576
0.00273577
0.00273579
0.0027358
0.00273582
0.00273583
0.00273584
0.00273586
0.00273587
0.00273589
0.0027359
0.00273591
0.00273593
0.00273594
0.00273596
0.00273597
0.00273598
0.002736
0.00273601
0.00273602
0.00273603
0.00273605
0.00273606
0.00273607
0.00273609
0.0027361
0.00273611
0.00273612
0.00273614
0.00273615
0.00273616
0.00273617
0.00273618
0.0027362
0.00273621
0.00273622
0.00273623
0.00273624
0.00273626
0.00273627
0.00273628
0.00273629
0.0027363
0.00273631
0.00273632
0.00273633
0.00273635
0.00273636
0.00273637
0.00273638
0.00273639
0.0027364
0.00273641
0.00273642
0.00273643
0.00273644
0.00273645
0.00273646
0.00273647
0.00273648
0.00273649
0.0027365
0.00273651
0.00273652
0.00273653
0.00273654
0.00273655
0.00273656
0.00273657
0.00273658
0.00273659
0.0027366
0.00273661
0.00273662
0.00273663
0.00273663
0.00273664
0.00273665
0.00273666
0.00273667
0.00273668
0.00273669
0.0027367
0.0027367
0.00273671
0.00273672
0.00273673
0.00273674
0.00273675
0.00273675
0.00273676
0.00273677
0.00273678
0.00273679
0.00273679
0.0027368
0.00273681
0.00273682
0.00273682
0.00273683
0.00273684
0.00273685
0.00273685
0.00273686
0.00273687
0.00273688
0.00273688
0.00273689
0.0027369
0.00273691
0.00273691
0.00273692
0.00273693
0.00273693
0.00273694
0.00273695
0.00273695
0.00273696
0.00273697
0.00273697
0.00273698
0.00273699
0.00273699
0.002737
0.002737
0.00273701
0.00273702
0.00273702
0.00273703
0.00273704
0.00273704
0.00273705
0.00273705
0.00273706
0.00273706
0.00273707
0.00273708
0.00273708
0.00273709
0.00273709
0.0027371
0.0027371
0.00273711
0.00273712
0.00273712
0.00273713
0.00273713
0.00273714
0.00273714
0.00273715
0.00273715
0.00273716
0.00273716
0.00273717
0.00273717
0.00273718
0.00273718
0.00273719
0.00273719
0.0027372
0.0027372
0.00273721
0.00273721
0.00273721
0.00273722
0.00273722
0.00273723
0.00273723
0.00273724
0.00273724
0.00273725
0.00273725
0.00273725
0.00273726
0.00273726
0.00273727
0.00273727
0.00273728
0.00273728
0.00273728
0.00273729
0.00273729
0.0027373
0.0027373
0.0027373
0.00273731
0.00273731
0.00273731
0.00273732
0.00273732
0.00273733
0.00273733
0.00273733
0.00273734
0.00273734
0.00273734
0.00273735
0.00273735
0.00273735
0.00273736
0.00273736
0.00273736
0.00273737
0.00273737
0.00273737
0.00273738
0.00273738
0.00273738
0.00273739
0.00273739
0.00273739
0.0027374
0.0027374
0.0027374
0.00273741
0.00273741
0.00273741
0.00273741
0.00273742
0.00273742
0.00273742
0.00273743
0.00273743
0.00273743
0.00273743
0.00273744
0.00273744
0.00273744
0.00273744
0.00273745
0.00273745
0.00273745
0.00273746
0.00273746
0.00273746
0.00273746
0.00273747
0.00273747
0.00273747
0.00273747
0.00273747
0.00273748
0.00273748
0.00273748
0.00273748
0.00273749
0.00273749
0.00273749
0.00273749
0.0027375
0.0027375
0.0027375
0.0027375
0.0027375
0.00273751
0.00273751
0.00273751
0.00273751
0.00273751
0.00273752
0.00273752
0.00273752
0.00273752
0.00273752
0.00273753
0.00273753
0.00273753
0.00273753
0.00273753
0.00273754
0.00273754
0.00273754
0.00273754
0.00273754
0.00273754
0.00273755
0.00273755
0.00273755
0.00273755
0.00273755
0.00273755
0.00273756
0.00273756
0.00273756
0.00273756
0.00273756
0.00273756
0.00273757
0.00273757
0.00273757
0.00273757
0.00273757
0.00273757
0.00273757
0.00273758
0.00273758
0.00273758
0.00273758
0.00273758
0.00273758
0.00273758
0.00273759
0.00273759
0.00273759
0.00273759
0.00273759
0.00273759
0.00273759
0.00273759
0.0027376
0.0027376
0.0027376
0.0027376
0.0027376
0.0027376
0.0027376
0.0027376
0.00273761
0.00273761
0.00273761
0.00273761
0.00273761
0.00273761
0.00273761
0.00273761
0.00273761
0.00273762
0.00273762
0.00273762
0.00273762
0.00273762
0.00273762
0.00273762
0.00273762
0.00273762
0.00273762
0.00273763
0.00273763
0.00273763
0.00273763
0.00273763
0.00273763
0.00273763
0.00273763
0.00273763
0.00273763
0.00273764
0.00273764
0.00273764
0.00273764
0.00273764
0.00273764
0.00273764
0.00273764
0.00273764
0.00273764
0.00273764
0.00273764
0.00273764
0.00273765
0.00273765
0.00273765
0.00273765
0.00273765
0.00273765
0.00273765
0.00273765
0.00273765
0.00273765
0.00273765
0.00273765
0.00273765
0.00273766
0.00273766
0.00273766
0.00273766
0.00273766
0.00273766
0.00273766
0.00273766
0.00273766
0.00273766
0.00273766
0.00273766
0.00273766
0.00273766
0.00273766
0.00273766
0.00273766
0.00273767
0.00273767
0.00273767
0.00273767
0.00273767
0.00273767
0.00273767
0.00273767
0.00273767
0.00273767
0.00273767
0.00273767
0.00273767
0.00273767
0.00273767
0.00273767
0.00273767
0.00273767
0.00273767
0.00273768
0.00273768
0.00273768
0.00273768
0.00273768
0.00273768
0.00273768
0.00273768
0.00273768
0.00273768
0.00273768
0.00273768
0.00273768
0.00273768
0.00273768
0.00273768
0.00273768
0.00273768
0.00273768
0.00273768
0.00273768
0.00273768
0.00273768
0.00273768
0.00273768
0.00273769
0.00273769
0.00273769
0.00273769
0.00273769
0.00273769
0.00273769
0.00273769
0.00273769
0.00273769
0.00273769
0.00273769
0.00273769
0.00273769
0.00273769
0.00273769
0.00273769
0.00273769
0.00273769
0.00273769
0.00273769
0.00273769
0.00273769
0.00273769
0.00273769
0.00273769
0.00273769
0.00273769
0.00273769
0.00273769
0.00273769
0.00273769
0.00273769
0.00273769
0.0027377
0.0027377
0.0027377
0.0027377
0.0027377
0.0027377
0.0027377
0.0027377
0.0027377
0.0027377
0.0027377
0.0027377
0.0027377
0.0027377
0.0027377
0.0027377
0.0027377
0.0027377
0.0027377
0.0027377
0.0027377
0.0027377
0.0027377
0.0027377
0.0027377
0.0027377
0.0027377
0.0027377
0.0027377
0.0027377
0.0027377
0.0027377
0.0027377
0.0027377
0.0027377
0.0027377
0.0027377
0.0027377
0.0027377
0.0027377
0.0027377
0.0027377
0.0027377
0.0027377
0.0027377
0.0027377
0.0027377
0.0027377
0.0027377
0.0027377
0.0027377
0.0027377
0.0027377
0.0027377
0.0027377
0.0027377
0.0027377
0.0027377
0.0027377
0.0027377
0.0027377
0.0027377
0.0027377
0.00273771
0.00273771
0.00273771
0.00273771
0.00273771
0.00273771
0.00273771
0.00273771
0.00273771
0.00273771
0.00273771
0.00273771
0.00273771
0.00273771
0.00273771
0.00273771
0.00273771
0.00273771
0.00273771
0.00273771
0.00273771
0.00273771
0.00273771
0.00273771
0.00273771
0.00273771
0.00273771
0.00273771
0.00273771
0.00273771
0.00273771
0.00273771
0.00273771
0.00273771
0.00273771
0.00273771
0.00273771
0.00273771
0.00273771
0.00273771
0.00273771
0.00273771
0.00273771
0.00273771
0.00273771
0.00273771
0.00273771
0.00273771
0.00273771
0.00273771
0.00273771
0.00273771
0.00273771
0.00273771
0.00273771
0.00273771
0.00273771
0.00273771
0.00273771
0.00273771
0.00273771
0.00273771
0.00273771
0.00273771
0.00273771
0.00273771
0.00273771
0.00273771
0.00273771
0.00273771
0.00273771
0.00273771
0.00273771
0.00273771
0.00273771
0.00273771
0.00273771
0.00273771
0.00273771
0.00273771
0.00273771
0.00273771
0.00273771
0.00273771
0.00273771
0.00273771
0.00273771
0.00273771
0.00273771
0.00273771
0.00273771
0.00273771
0.00273771
0.00273771
0.00273771
0.00273771
0.00273771
0.00273771
0.00273771
0.00273771
0.00273771
0.00273771
0.00273771
0.00273771
0.00273771
0.00273771
0.00273771
0.00273771
0.00273771
0.00273771
0.00273771
0.00273771
0.00273771
0.00273771
0.00273771
0.00273771
0.00273771
0.00273771
0.00273771
0.00273771
0.00273771
0.00273771
0.00273771
0.00273771
0.00273771
0.00273771
0.00273771
0.00273771
0.00273771
0.00273771
0.00273771
0.00273771
0.00273771
0.00273771
0.00273771
0.00273771
0.0027377
0.0027377
0.0027377
0.0027377
0.0027377
0.0027377
0.0027377
0.0027377
0.0027377
0.0027377
0.0027377
0.0027377
0.0027377
0.0027377
0.0027377
0.0027377
0.0027377
0.0027377
0.0027377
0.0027377
0.0027377
0.0027377
0.0027377
0.0027377
0.0027377
0.0027377
0.0027377
0.0027377
0.0027377
0.0027377
0.0027377
0.0027377
0.0027377
0.0027377
0.0027377
0.0027377
0.0027377
0.0027377
0.0027377
0.0027377
0.0027377
0.0027377
0.0027377
0.0027377
0.0027377
0.0027377
0.0027377
0.0027377
0.0027377
0.0027377
0.0027377
0.0027377
0.0027377
0.0027377
0.0027377
0.0027377
0.0027377
0.0027377
0.0027377
0.0027377
0.0027377
0.0027377
0.0027377
0.0027377
0.0027377
0.00273769
0.00273769
0.00273769
0.00273769
0.00273769
0.00273769
0.00273769
0.00273769
0.00273769
0.00273769
0.00273769
0.00273769
0.00273769
0.00273769
0.00273769
0.00273769
0.00273769
0.00273769
0.00273769
0.00273769
0.00273769
0.00273769
0.00273769
0.00273769
0.00273769
0.00273769
0.00273769
0.00273769
0.00273769
0.00273769
0.00273769
0.00273769
0.00273769
0.00273769
0.00273769
0.00273769
0.00273768
0.00273768
0.00273768
0.00273768
0.00273768
0.00273768
0.00273768
0.00273768
0.00273768
0.00273768
0.00273768
0.00273768
0.00273768
0.00273768
0.00273768
0.00273768
0.00273768
0.00273768
0.00273768
0.00273768
0.00273768
0.00273768
0.00273768
0.00273768
0.00273768
0.00273768
0.00273767
0.00273767
0.00273767
0.00273767
0.00273767
0.00273767
0.00273767
0.00273767
0.00273767
0.00273767
0.00273767
0.00273767
0.00273767
0.00273767
0.00273767
0.00273767
0.00273767
0.00273767
0.00273767
0.00273767
0.00273766
0.00273766
0.00273766
0.00273766
0.00273766
0.00273766
0.00273766
0.00273766
0.00273766
0.00273766
0.00273766
0.00273766
0.00273766
0.00273766
0.00273766
0.00273766
0.00273766
0.00273765
0.00273765
0.00273765
0.00273765
0.00273765
0.00273765
0.00273765
0.00273765
0.00273765
0.00273765
0.00273765
0.00273765
0.00273765
0.00273765
0.00273764
0.00273764
0.00273764
0.00273764
0.00273764
0.00273764
0.00273764
0.00273764
0.00273764
0.00273764
0.00273764
0.00273764
0.00273763
0.00273763
0.00273763
0.00273763
0.00273763
0.00273763
0.00273763
0.00273763
0.00273763
0.00273763
0.00273763
0.00273763
0.00273762
0.00273762
0.00273762
0.00273762
0.00273762
0.00273762
0.00273762
0.00273762
0.00273762
0.00273762
0.00273761
0.00273761
0.00273761
0.00273761
0.00273761
0.00273761
0.00273761
0.00273761
0.00273761
0.0027376
0.0027376
0.0027376
0.0027376
0.0027376
0.0027376
0.0027376
0.0027376
0.00273759
0.00273759
0.00273759
0.00273759
0.00273759
0.00273759
0.00273759
0.00273759
0.00273758
0.00273758
0.00273758
0.00273758
0.00273758
0.00273758
0.00273758
0.00273757
0.00273757
0.00273757
0.00273757
0.00273757
0.00273757
0.00273757
0.00273756
0.00273756
0.00273756
0.00273756
0.00273756
0.00273756
0.00273755
0.00273755
0.00273755
0.00273755
0.00273755
0.00273755
0.00273754
0.00273754
0.00273754
0.00273754
0.00273754
0.00273754
0.00273753
0.00273753
0.00273753
0.00273753
0.00273753
0.00273752
0.00273752
0.00273752
0.00273752
0.00273752
0.00273751
0.00273751
0.00273751
0.00273751
0.00273751
0.0027375
0.0027375
0.0027375
0.0027375
0.0027375
0.00273749
0.00273749
0.00273749
0.00273749
0.00273749
0.00273748
0.00273748
0.00273748
0.00273748
0.00273747
0.00273747
0.00273747
0.00273747
0.00273746
0.00273746
0.00273746
0.00273746
0.00273745
0.00273745
0.00273745
0.00273745
0.00273744
0.00273744
0.00273744
0.00273744
0.00273743
0.00273743
0.00273743
0.00273742
0.00273742
0.00273742
0.00273742
0.00273741
0.00273741
0.00273741
0.0027374
0.0027374
0.0027374
0.0027374
0.00273739
0.00273739
0.00273739
0.00273738
0.00273738
0.00273738
0.00273737
0.00273737
0.00273737
0.00273736
0.00273736
0.00273736
0.00273735
0.00273735
0.00273735
0.00273734
0.00273734
0.00273734
0.00273733
0.00273733
0.00273733
0.00273732
0.00273732
0.00273731
0.00273731
0.00273731
0.0027373
0.0027373
0.0027373
0.00273729
0.00273729
0.00273728
0.00273728
0.00273728
0.00273727
0.00273727
0.00273726
0.00273726
0.00273725
0.00273725
0.00273725
0.00273724
0.00273724
0.00273723
0.00273723
0.00273722
0.00273722
0.00273722
0.00273721
0.00273721
0.0027372
0.0027372
0.00273719
0.00273719
0.00273718
0.00273718
0.00273717
0.00273717
0.00273716
0.00273716
0.00273715
0.00273715
0.00273714
0.00273714
0.00273713
0.00273713
0.00273712
0.00273712
0.00273711
0.00273711
0.0027371
0.00273709
0.00273709
0.00273708
0.00273708
0.00273707
0.00273707
0.00273706
0.00273705
0.00273705
0.00273704
0.00273704
0.00273703
0.00273703
0.00273702
0.00273701
0.00273701
0.002737
0.00273699
0.00273699
0.00273698
0.00273697
0.00273697
0.00273696
0.00273696
0.00273695
0.00273694
0.00273694
0.00273693
0.00273692
0.00273691
0.00273691
0.0027369
0.00273689
0.00273689
0.00273688
0.00273687
0.00273687
0.00273686
0.00273685
0.00273684
0.00273684
0.00273683
0.00273682
0.00273681
0.00273681
0.0027368
0.00273679
0.00273678
0.00273677
0.00273677
0.00273676
0.00273675
0.00273674
0.00273673
0.00273673
0.00273672
0.00273671
0.0027367
0.00273669
0.00273668
0.00273667
0.00273667
0.00273666
0.00273665
0.00273664
0.00273663
0.00273662
0.00273661
0.0027366
0.00273659
0.00273658
0.00273658
0.00273657
0.00273656
0.00273655
0.00273654
0.00273653
0.00273652
0.00273651
0.0027365
0.00273649
0.00273648
0.00273647
0.00273646
0.00273645
0.00273644
0.00273643
0.00273642
0.00273641
0.0027364
0.00273638
0.00273637
0.00273636
0.00273635
0.00273634
0.00273633
0.00273632
0.00273631
0.0027363
0.00273629
0.00273627
0.00273626
0.00273625
0.00273624
0.00273623
0.00273622
0.0027362
0.00273619
0.00273618
0.00273617
0.00273616
0.00273614
0.00273613
0.00273612
0.00273611
0.00273609
0.00273608
0.00273607
0.00273606
0.00273604
0.00273603
0.00273602
0.002736
0.00273599
0.00273598
0.00273596
0.00273595
0.00273594
0.00273592
0.00273591
0.0027359
0.00273588
0.00273587
0.00273585
0.00273584
0.00273583
0.00273581
0.0027358
0.00273578
0.00273577
0.00273575
0.00273574
0.00273573
0.00273571
0.0027357
0.00273568
0.00273566
0.00273565
0.00273563
0.00273562
0.0027356
0.00273559
0.00273557
0.00273556
0.00273554
0.00273552
0.00273551
0.00273549
0.00273548
0.00273546
0.00273544
0.00273543
0.00273541
0.00273539
0.00273538
0.00273536
0.00273534
0.00273533
0.00273531
0.00273529
0.00273527
0.00273526
0.00273524
0.00273522
0.0027352
0.00273519
0.00273517
0.00273515
0.00273513
0.00273511
0.0027351
0.00273508
0.00273506
0.00273504
0.00273502
0.002735
0.00273498
0.00273497
0.00273495
0.00273493
0.00273491
0.00273489
0.00273487
0.00273485
0.00273483
0.00273481
0.00273479
0.00273477
0.00273475
0.00273473
0.00273471
0.00273469
0.00273467
0.00273465
0.00273463
0.00273461
0.00273459
0.00273457
0.00273455
0.00273453
0.00273451
0.00273448
0.00273446
0.00273444