/*--------------------------------*- C++ -*----------------------------------*\
| =========                 |                                                 |
| \\      /  F ield         | OpenFOAM: The Open Source CFD Toolbox           |
|  \\    /   O peration     | Version:  2312                                  |
|   \\  /    A nd           | Website:  www.openfoam.com                      |
|    \\/     M anipulation  |                                                 |
\*---------------------------------------------------------------------------*/
FoamFile
{
    version     2.0;
    format      ascii;
    arch        "LSB;label=32;scalar=64";
    class       volScalarField;
    location    "48.6";
    object      nut;
}
// * * * * * * * * * * * * * * * * * * * * * * * * * * * * * * * * * * * * * //

dimensions      [0 2 -1 0 0 0 0];

internalField   nonuniform List<scalar> 
4000
(
1.9336e-06
5.19098e-06
1.16936e-05
2.10798e-05
3.21812e-05
4.40842e-05
5.62891e-05
6.85495e-05
8.0747e-05
9.28256e-05
0.00010476
0.000116542
0.000128168
0.000139643
0.00015097
0.000162155
0.000173204
0.000184123
0.000194917
0.000205592
0.000216152
0.000226602
0.000236946
0.000247189
0.000257333
0.000267382
0.00027734
0.000287209
0.000296991
0.000306691
0.000316308
0.000325847
0.000335309
0.000344695
0.000354008
0.00036325
0.000372421
0.000381524
0.000390559
0.000399529
0.000408433
0.000417275
0.000426054
0.000434772
0.000443429
0.000452028
0.000460568
0.000469051
0.000477477
0.000485847
0.000494162
0.000502423
0.000510631
0.000518785
0.000526888
0.000534939
0.000542939
0.000550888
0.000558788
0.000566639
0.000574441
0.000582195
0.000589901
0.00059756
0.000605173
0.000612739
0.00062026
0.000627735
0.000635165
0.00064255
0.000649892
0.00065719
0.000664444
0.000671656
0.000678825
0.000685951
0.000693036
0.00070008
0.000707082
0.000714043
0.000720963
0.000727843
0.000734684
0.000741484
0.000748246
0.000754968
0.000761651
0.000768296
0.000774903
0.000781471
0.000788002
0.000794496
0.000800952
0.000807371
0.000813754
0.0008201
0.00082641
0.000832684
0.000838923
0.000845125
0.000851293
0.000857426
0.000863523
0.000869586
0.000875615
0.00088161
0.00088757
0.000893497
0.00089939
0.00090525
0.000911077
0.000916871
0.000922632
0.000928361
0.000934057
0.000939721
0.000945354
0.000950954
0.000956523
0.00096206
0.000967566
0.000973041
0.000978486
0.000983899
0.000989282
0.000994635
0.000999958
0.00100525
0.00101051
0.00101575
0.00102095
0.00102612
0.00103127
0.00103639
0.00104147
0.00104653
0.00105156
0.00105656
0.00106154
0.00106648
0.0010714
0.00107629
0.00108115
0.00108599
0.0010908
0.00109558
0.00110033
0.00110506
0.00110976
0.00111443
0.00111908
0.0011237
0.00112829
0.00113286
0.00113741
0.00114192
0.00114641
0.00115088
0.00115532
0.00115974
0.00116413
0.0011685
0.00117284
0.00117715
0.00118145
0.00118571
0.00118996
0.00119418
0.00119837
0.00120255
0.00120669
0.00121082
0.00121492
0.001219
0.00122305
0.00122709
0.00123109
0.00123508
0.00123904
0.00124299
0.0012469
0.0012508
0.00125467
0.00125853
0.00126236
0.00126616
0.00126995
0.00127372
0.00127746
0.00128118
0.00128488
0.00128856
0.00129222
0.00129586
0.00129947
0.00130307
0.00130665
0.0013102
0.00131374
0.00131725
0.00132075
0.00132422
0.00132767
0.00133111
0.00133452
0.00133792
0.0013413
0.00134465
0.00134799
0.00135131
0.00135461
0.00135789
0.00136115
0.00136439
0.00136761
0.00137082
0.00137401
0.00137717
0.00138032
0.00138346
0.00138657
0.00138967
0.00139274
0.0013958
0.00139885
0.00140187
0.00140488
0.00140787
0.00141084
0.0014138
0.00141674
0.00141966
0.00142256
0.00142545
0.00142832
0.00143117
0.00143401
0.00143683
0.00143964
0.00144243
0.0014452
0.00144796
0.0014507
0.00145342
0.00145613
0.00145882
0.0014615
0.00146416
0.00146681
0.00146944
0.00147205
0.00147465
0.00147724
0.00147981
0.00148236
0.0014849
0.00148743
0.00148994
0.00149243
0.00149491
0.00149738
0.00149983
0.00150227
0.00150469
0.0015071
0.0015095
0.00151188
0.00151425
0.0015166
0.00151894
0.00152126
0.00152358
0.00152587
0.00152816
0.00153043
0.00153269
0.00153493
0.00153716
0.00153938
0.00154159
0.00154378
0.00154596
0.00154812
0.00155028
0.00155242
0.00155454
0.00155666
0.00155876
0.00156085
0.00156293
0.00156499
0.00156705
0.00156909
0.00157111
0.00157313
0.00157514
0.00157713
0.00157911
0.00158108
0.00158303
0.00158498
0.00158691
0.00158883
0.00159074
0.00159264
0.00159453
0.0015964
0.00159827
0.00160012
0.00160196
0.00160379
0.00160561
0.00160742
0.00160922
0.001611
0.00161278
0.00161454
0.0016163
0.00161804
0.00161977
0.00162149
0.00162321
0.00162491
0.0016266
0.00162828
0.00162995
0.0016316
0.00163325
0.00163489
0.00163652
0.00163814
0.00163975
0.00164134
0.00164293
0.00164451
0.00164608
0.00164764
0.00164918
0.00165072
0.00165225
0.00165377
0.00165528
0.00165678
0.00165827
0.00165975
0.00166122
0.00166268
0.00166413
0.00166558
0.00166701
0.00166843
0.00166985
0.00167126
0.00167265
0.00167404
0.00167542
0.00167679
0.00167815
0.0016795
0.00168084
0.00168217
0.0016835
0.00168481
0.00168612
0.00168741
0.0016887
0.00168998
0.00169125
0.00169252
0.00169377
0.00169501
0.00169625
0.00169748
0.0016987
0.00169991
0.00170111
0.00170231
0.00170349
0.00170467
0.00170584
0.001707
0.00170815
0.00170929
0.00171043
0.00171156
0.00171267
0.00171378
0.00171489
0.00171598
0.00171707
0.00171815
0.00171922
0.00172028
0.00172133
0.00172238
0.00172342
0.00172445
0.00172547
0.00172648
0.00172749
0.00172849
0.00172948
0.00173046
0.00173143
0.0017324
0.00173336
0.00173431
0.00173525
0.00173619
0.00173712
0.00173804
0.00173895
0.00173985
0.00174075
0.00174164
0.00174252
0.0017434
0.00174426
0.00174512
0.00174597
0.00174682
0.00174765
0.00174848
0.0017493
0.00175012
0.00175093
0.00175172
0.00175252
0.0017533
0.00175408
0.00175485
0.00175561
0.00175636
0.00175711
0.00175785
0.00175858
0.00175931
0.00176003
0.00176074
0.00176144
0.00176214
0.00176282
0.00176351
0.00176418
0.00176485
0.00176551
0.00176616
0.00176681
0.00176744
0.00176808
0.0017687
0.00176932
0.00176993
0.00177053
0.00177113
0.00177171
0.0017723
0.00177287
0.00177344
0.001774
0.00177455
0.0017751
0.00177564
0.00177617
0.00177669
0.00177721
0.00177772
0.00177823
0.00177873
0.00177922
0.0017797
0.00178018
0.00178065
0.00178111
0.00178157
0.00178202
0.00178246
0.0017829
0.00178333
0.00178375
0.00178416
0.00178457
0.00178498
0.00178537
0.00178576
0.00178614
0.00178652
0.00178689
0.00178725
0.0017876
0.00178795
0.00178829
0.00178863
0.00178896
0.00178928
0.0017896
0.00178991
0.00179021
0.0017905
0.00179079
0.00179108
0.00179135
0.00179163
0.00179189
0.00179215
0.0017924
0.00179264
0.00179288
0.00179311
0.00179334
0.00179356
0.00179377
0.00179398
0.00179418
0.00179438
0.00179457
0.00179475
0.00179492
0.00179509
0.00179526
0.00179542
0.00179557
0.00179571
0.00179585
0.00179599
0.00179612
0.00179624
0.00179635
0.00179646
0.00179657
0.00179667
0.00179676
0.00179685
0.00179693
0.001797
0.00179707
0.00179714
0.00179719
0.00179725
0.00179729
0.00179734
0.00179737
0.0017974
0.00179743
0.00179745
0.00179746
0.00179747
0.00179747
0.00179747
0.00179746
0.00179745
0.00179743
0.00179741
0.00179738
0.00179734
0.0017973
0.00179726
0.00179721
0.00179716
0.0017971
0.00179703
0.00179696
0.00179689
0.00179681
0.00179672
0.00179664
0.00179654
0.00179644
0.00179634
0.00179623
0.00179612
0.001796
0.00179588
0.00179575
0.00179562
0.00179549
0.00179535
0.00179521
0.00179506
0.0017949
0.00179475
0.00179459
0.00179442
0.00179425
0.00179408
0.0017939
0.00179372
0.00179353
0.00179334
0.00179315
0.00179295
0.00179275
0.00179254
0.00179233
0.00179212
0.0017919
0.00179168
0.00179146
0.00179123
0.001791
0.00179076
0.00179053
0.00179028
0.00179004
0.00178979
0.00178954
0.00178928
0.00178903
0.00178876
0.0017885
0.00178823
0.00178796
0.00178769
0.00178741
0.00178713
0.00178685
0.00178657
0.00178628
0.00178599
0.00178569
0.0017854
0.0017851
0.0017848
0.00178449
0.00178419
0.00178388
0.00178357
0.00178326
0.00178294
0.00178262
0.0017823
0.00178198
0.00178165
0.00178133
0.001781
0.00178067
0.00178034
0.00178
0.00177966
0.00177933
0.00177899
0.00177864
0.0017783
0.00177796
0.00177761
0.00177726
0.00177691
0.00177656
0.00177621
0.00177585
0.0017755
0.00177514
0.00177478
0.00177442
0.00177406
0.0017737
0.00177333
0.00177297
0.0017726
0.00177224
0.00177187
0.0017715
0.00177113
0.00177076
0.00177039
0.00177002
0.00176965
0.00176927
0.0017689
0.00176853
0.00176815
0.00176778
0.0017674
0.00176702
0.00176665
0.00176627
0.00176589
0.00176551
0.00176514
0.00176476
0.00176438
0.001764
0.00176362
0.00176324
0.00176286
0.00176248
0.0017621
0.00176172
0.00176135
0.00176097
0.00176059
0.00176021
0.00175983
0.00175945
0.00175907
0.0017587
0.00175832
0.00175794
0.00175757
0.00175719
0.00175682
0.00175644
0.00175607
0.00175569
0.00175532
0.00175495
0.00175457
0.0017542
0.00175383
0.00175346
0.00175309
0.00175272
0.00175235
0.00175199
0.00175162
0.00175126
0.00175089
0.00175053
0.00175017
0.0017498
0.00174944
0.00174909
0.00174873
0.00174837
0.00174801
0.00174766
0.0017473
0.00174695
0.0017466
0.00174625
0.0017459
0.00174555
0.00174521
0.00174486
0.00174452
0.00174418
0.00174383
0.00174349
0.00174316
0.00174282
0.00174248
0.00174215
0.00174182
0.00174149
0.00174116
0.00174083
0.0017405
0.00174018
0.00173985
0.00173953
0.00173921
0.00173889
0.00173858
0.00173826
0.00173795
0.00173763
0.00173732
0.00173701
0.00173671
0.0017364
0.0017361
0.0017358
0.0017355
0.0017352
0.0017349
0.00173461
0.00173431
0.00173402
0.00173373
0.00173344
0.00173316
0.00173287
0.00173259
0.00173231
0.00173203
0.00173176
0.00173148
0.00173121
0.00173094
0.00173067
0.0017304
0.00173014
0.00172987
0.00172961
0.00172935
0.00172909
0.00172884
0.00172858
0.00172833
0.00172808
0.00172783
0.00172759
0.00172734
0.0017271
0.00172686
0.00172662
0.00172639
0.00172615
0.00172592
0.00172569
0.00172546
0.00172523
0.00172501
0.00172478
0.00172456
0.00172434
0.00172413
0.00172391
0.0017237
0.00172349
0.00172328
0.00172307
0.00172287
0.00172266
0.00172246
0.00172226
0.00172206
0.00172187
0.00172167
0.00172148
0.00172129
0.0017211
0.00172092
0.00172073
0.00172055
0.00172037
0.00172019
0.00172002
0.00171984
0.00171967
0.0017195
0.00171933
0.00171916
0.001719
0.00171883
0.00171867
0.00171851
0.00171835
0.0017182
0.00171804
0.00171789
0.00171774
0.00171759
0.00171745
0.0017173
0.00171716
0.00171701
0.00171688
0.00171674
0.0017166
0.00171647
0.00171633
0.0017162
0.00171607
0.00171595
0.00171582
0.0017157
0.00171557
0.00171545
0.00171533
0.00171522
0.0017151
0.00171499
0.00171487
0.00171476
0.00171465
0.00171455
0.00171444
0.00171434
0.00171423
0.00171413
0.00171403
0.00171393
0.00171384
0.00171374
0.00171365
0.00171356
0.00171347
0.00171338
0.00171329
0.00171321
0.00171312
0.00171304
0.00171296
0.00171288
0.0017128
0.00171272
0.00171265
0.00171257
0.0017125
0.00171243
0.00171236
0.00171229
0.00171223
0.00171216
0.0017121
0.00171203
0.00171197
0.00171191
0.00171185
0.00171179
0.00171174
0.00171168
0.00171163
0.00171158
0.00171153
0.00171148
0.00171143
0.00171138
0.00171133
0.00171129
0.00171124
0.0017112
0.00171116
0.00171112
0.00171108
0.00171104
0.001711
0.00171097
0.00171093
0.0017109
0.00171087
0.00171084
0.00171081
0.00171078
0.00171075
0.00171072
0.0017107
0.00171067
0.00171065
0.00171062
0.0017106
0.00171058
0.00171056
0.00171054
0.00171052
0.00171051
0.00171049
0.00171048
0.00171046
0.00171045
0.00171044
0.00171042
0.00171041
0.0017104
0.00171039
0.00171039
0.00171038
0.00171037
0.00171037
0.00171036
0.00171036
0.00171036
0.00171035
0.00171035
0.00171035
0.00171035
0.00171035
0.00171035
0.00171036
0.00171036
0.00171036
0.00171037
0.00171037
0.00171038
0.00171039
0.00171039
0.0017104
0.00171041
0.00171042
0.00171043
0.00171044
0.00171045
0.00171046
0.00171048
0.00171049
0.0017105
0.00171052
0.00171053
0.00171055
0.00171056
0.00171058
0.0017106
0.00171062
0.00171063
0.00171065
0.00171067
0.00171069
0.00171071
0.00171074
0.00171076
0.00171078
0.0017108
0.00171082
0.00171085
0.00171087
0.0017109
0.00171092
0.00171095
0.00171097
0.001711
0.00171102
0.00171105
0.00171108
0.00171111
0.00171114
0.00171116
0.00171119
0.00171122
0.00171125
0.00171128
0.00171131
0.00171134
0.00171138
0.00171141
0.00171144
0.00171147
0.0017115
0.00171154
0.00171157
0.0017116
0.00171164
0.00171167
0.00171171
0.00171174
0.00171178
0.00171181
0.00171185
0.00171188
0.00171192
0.00171195
0.00171199
0.00171203
0.00171206
0.0017121
0.00171214
0.00171218
0.00171222
0.00171225
0.00171229
0.00171233
0.00171237
0.00171241
0.00171245
0.00171249
0.00171253
0.00171257
0.00171261
0.00171265
0.00171269
0.00171273
0.00171277
0.00171281
0.00171285
0.00171289
0.00171293
0.00171297
0.00171301
0.00171305
0.0017131
0.00171314
0.00171318
0.00171322
0.00171326
0.0017133
0.00171335
0.00171339
0.00171343
0.00171347
0.00171352
0.00171356
0.0017136
0.00171364
0.00171369
0.00171373
0.00171377
0.00171382
0.00171386
0.0017139
0.00171395
0.00171399
0.00171403
0.00171407
0.00171412
0.00171416
0.0017142
0.00171425
0.00171429
0.00171434
0.00171438
0.00171442
0.00171447
0.00171451
0.00171455
0.0017146
0.00171464
0.00171468
0.00171473
0.00171477
0.00171481
0.00171486
0.0017149
0.00171494
0.00171499
0.00171503
0.00171507
0.00171512
0.00171516
0.0017152
0.00171525
0.00171529
0.00171533
0.00171538
0.00171542
0.00171546
0.0017155
0.00171555
0.00171559
0.00171563
0.00171568
0.00171572
0.00171576
0.0017158
0.00171585
0.00171589
0.00171593
0.00171597
0.00171602
0.00171606
0.0017161
0.00171614
0.00171618
0.00171623
0.00171627
0.00171631
0.00171635
0.00171639
0.00171643
0.00171648
0.00171652
0.00171656
0.0017166
0.00171664
0.00171668
0.00171672
0.00171676
0.0017168
0.00171684
0.00171688
0.00171692
0.00171697
0.00171701
0.00171705
0.00171709
0.00171713
0.00171716
0.0017172
0.00171724
0.00171728
0.00171732
0.00171736
0.0017174
0.00171744
0.00171748
0.00171752
0.00171756
0.00171759
0.00171763
0.00171767
0.00171771
0.00171775
0.00171779
0.00171782
0.00171786
0.0017179
0.00171794
0.00171797
0.00171801
0.00171805
0.00171808
0.00171812
0.00171816
0.00171819
0.00171823
0.00171827
0.0017183
0.00171834
0.00171837
0.00171841
0.00171845
0.00171848
0.00171852
0.00171855
0.00171859
0.00171862
0.00171866
0.00171869
0.00171873
0.00171876
0.0017188
0.00171883
0.00171886
0.0017189
0.00171893
0.00171896
0.001719
0.00171903
0.00171906
0.0017191
0.00171913
0.00171916
0.0017192
0.00171923
0.00171926
0.00171929
0.00171933
0.00171936
0.00171939
0.00171942
0.00171945
0.00171948
0.00171952
0.00171955
0.00171958
0.00171961
0.00171964
0.00171967
0.0017197
0.00171973
0.00171976
0.00171979
0.00171982
0.00171985
0.00171988
0.00171991
0.00171994
0.00171997
0.00172
0.00172003
0.00172006
0.00172008
0.00172011
0.00172014
0.00172017
0.0017202
0.00172022
0.00172025
0.00172028
0.00172031
0.00172034
0.00172036
0.00172039
0.00172042
0.00172044
0.00172047
0.0017205
0.00172052
0.00172055
0.00172058
0.0017206
0.00172063
0.00172065
0.00172068
0.00172071
0.00172073
0.00172076
0.00172078
0.00172081
0.00172083
0.00172086
0.00172088
0.0017209
0.00172093
0.00172095
0.00172098
0.001721
0.00172103
0.00172105
0.00172107
0.0017211
0.00172112
0.00172114
0.00172117
0.00172119
0.00172121
0.00172123
0.00172126
0.00172128
0.0017213
0.00172132
0.00172135
0.00172137
0.00172139
0.00172141
0.00172143
0.00172145
0.00172148
0.0017215
0.00172152
0.00172154
0.00172156
0.00172158
0.0017216
0.00172162
0.00172164
0.00172166
0.00172168
0.0017217
0.00172172
0.00172174
0.00172176
0.00172178
0.0017218
0.00172182
0.00172184
0.00172186
0.00172188
0.0017219
0.00172191
0.00172193
0.00172195
0.00172197
0.00172199
0.00172201
0.00172202
0.00172204
0.00172206
0.00172208
0.00172209
0.00172211
0.00172213
0.00172215
0.00172216
0.00172218
0.0017222
0.00172222
0.00172223
0.00172225
0.00172226
0.00172228
0.0017223
0.00172231
0.00172233
0.00172235
0.00172236
0.00172238
0.00172239
0.00172241
0.00172242
0.00172244
0.00172246
0.00172247
0.00172249
0.0017225
0.00172252
0.00172253
0.00172255
0.00172256
0.00172257
0.00172259
0.0017226
0.00172262
0.00172263
0.00172265
0.00172266
0.00172267
0.00172269
0.0017227
0.00172271
0.00172273
0.00172274
0.00172275
0.00172277
0.00172278
0.00172279
0.00172281
0.00172282
0.00172283
0.00172285
0.00172286
0.00172287
0.00172288
0.0017229
0.00172291
0.00172292
0.00172293
0.00172294
0.00172296
0.00172297
0.00172298
0.00172299
0.001723
0.00172301
0.00172303
0.00172304
0.00172305
0.00172306
0.00172307
0.00172308
0.00172309
0.0017231
0.00172311
0.00172312
0.00172314
0.00172315
0.00172316
0.00172317
0.00172318
0.00172319
0.0017232
0.00172321
0.00172322
0.00172323
0.00172324
0.00172325
0.00172326
0.00172327
0.00172328
0.00172329
0.0017233
0.00172331
0.00172331
0.00172332
0.00172333
0.00172334
0.00172335
0.00172336
0.00172337
0.00172338
0.00172339
0.0017234
0.0017234
0.00172341
0.00172342
0.00172343
0.00172344
0.00172345
0.00172346
0.00172346
0.00172347
0.00172348
0.00172349
0.0017235
0.0017235
0.00172351
0.00172352
0.00172353
0.00172354
0.00172354
0.00172355
0.00172356
0.00172357
0.00172357
0.00172358
0.00172359
0.0017236
0.0017236
0.00172361
0.00172362
0.00172362
0.00172363
0.00172364
0.00172364
0.00172365
0.00172366
0.00172366
0.00172367
0.00172368
0.00172368
0.00172369
0.0017237
0.0017237
0.00172371
0.00172372
0.00172372
0.00172373
0.00172374
0.00172374
0.00172375
0.00172375
0.00172376
0.00172377
0.00172377
0.00172378
0.00172378
0.00172379
0.00172379
0.0017238
0.00172381
0.00172381
0.00172382
0.00172382
0.00172383
0.00172383
0.00172384
0.00172384
0.00172385
0.00172385
0.00172386
0.00172386
0.00172387
0.00172387
0.00172388
0.00172388
0.00172389
0.00172389
0.0017239
0.0017239
0.00172391
0.00172391
0.00172392
0.00172392
0.00172393
0.00172393
0.00172394
0.00172394
0.00172395
0.00172395
0.00172395
0.00172396
0.00172396
0.00172397
0.00172397
0.00172398
0.00172398
0.00172398
0.00172399
0.00172399
0.001724
0.001724
0.001724
0.00172401
0.00172401
0.00172402
0.00172402
0.00172402
0.00172403
0.00172403
0.00172403
0.00172404
0.00172404
0.00172405
0.00172405
0.00172405
0.00172406
0.00172406
0.00172406
0.00172407
0.00172407
0.00172407
0.00172408
0.00172408
0.00172408
0.00172409
0.00172409
0.00172409
0.0017241
0.0017241
0.0017241
0.00172411
0.00172411
0.00172411
0.00172411
0.00172412
0.00172412
0.00172412
0.00172413
0.00172413
0.00172413
0.00172414
0.00172414
0.00172414
0.00172414
0.00172415
0.00172415
0.00172415
0.00172415
0.00172416
0.00172416
0.00172416
0.00172416
0.00172417
0.00172417
0.00172417
0.00172417
0.00172418
0.00172418
0.00172418
0.00172418
0.00172419
0.00172419
0.00172419
0.00172419
0.0017242
0.0017242
0.0017242
0.0017242
0.00172421
0.00172421
0.00172421
0.00172421
0.00172421
0.00172422
0.00172422
0.00172422
0.00172422
0.00172422
0.00172423
0.00172423
0.00172423
0.00172423
0.00172423
0.00172424
0.00172424
0.00172424
0.00172424
0.00172424
0.00172425
0.00172425
0.00172425
0.00172425
0.00172425
0.00172425
0.00172426
0.00172426
0.00172426
0.00172426
0.00172426
0.00172426
0.00172427
0.00172427
0.00172427
0.00172427
0.00172427
0.00172427
0.00172428
0.00172428
0.00172428
0.00172428
0.00172428
0.00172428
0.00172429
0.00172429
0.00172429
0.00172429
0.00172429
0.00172429
0.00172429
0.0017243
0.0017243
0.0017243
0.0017243
0.0017243
0.0017243
0.0017243
0.0017243
0.00172431
0.00172431
0.00172431
0.00172431
0.00172431
0.00172431
0.00172431
0.00172431
0.00172432
0.00172432
0.00172432
0.00172432
0.00172432
0.00172432
0.00172432
0.00172432
0.00172432
0.00172433
0.00172433
0.00172433
0.00172433
0.00172433
0.00172433
0.00172433
0.00172433
0.00172433
0.00172434
0.00172434
0.00172434
0.00172434
0.00172434
0.00172434
0.00172434
0.00172434
0.00172434
0.00172434
0.00172434
0.00172435
0.00172435
0.00172435
0.00172435
0.00172435
0.00172435
0.00172435
0.00172435
0.00172435
0.00172435
0.00172435
0.00172436
0.00172436
0.00172436
0.00172436
0.00172436
0.00172436
0.00172436
0.00172436
0.00172436
0.00172436
0.00172436
0.00172436
0.00172436
0.00172436
0.00172437
0.00172437
0.00172437
0.00172437
0.00172437
0.00172437
0.00172437
0.00172437
0.00172437
0.00172437
0.00172437
0.00172437
0.00172437
0.00172437
0.00172437
0.00172438
0.00172438
0.00172438
0.00172438
0.00172438
0.00172438
0.00172438
0.00172438
0.00172438
0.00172438
0.00172438
0.00172438
0.00172438
0.00172438
0.00172438
0.00172438
0.00172438
0.00172438
0.00172439
0.00172439
0.00172439
0.00172439
0.00172439
0.00172439
0.00172439
0.00172439
0.00172439
0.00172439
0.00172439
0.00172439
0.00172439
0.00172439
0.00172439
0.00172439
0.00172439
0.00172439
0.00172439
0.00172439
0.00172439
0.00172439
0.0017244
0.0017244
0.0017244
0.0017244
0.0017244
0.0017244
0.0017244
0.0017244
0.0017244
0.0017244
0.0017244
0.0017244
0.0017244
0.0017244
0.0017244
0.0017244
0.0017244
0.0017244
0.0017244
0.0017244
0.0017244
0.0017244
0.0017244
0.0017244
0.0017244
0.0017244
0.0017244
0.0017244
0.0017244
0.00172441
0.00172441
0.00172441
0.00172441
0.00172441
0.00172441
0.00172441
0.00172441
0.00172441
0.00172441
0.00172441
0.00172441
0.00172441
0.00172441
0.00172441
0.00172441
0.00172441
0.00172441
0.00172441
0.00172441
0.00172441
0.00172441
0.00172441
0.00172441
0.00172441
0.00172441
0.00172441
0.00172441
0.00172441
0.00172441
0.00172441
0.00172441
0.00172441
0.00172441
0.00172441
0.00172441
0.00172441
0.00172441
0.00172441
0.00172441
0.00172441
0.00172441
0.00172441
0.00172442
0.00172442
0.00172442
0.00172442
0.00172442
0.00172442
0.00172442
0.00172442
0.00172442
0.00172442
0.00172442
0.00172442
0.00172442
0.00172442
0.00172442
0.00172442
0.00172442
0.00172442
0.00172442
0.00172442
0.00172442
0.00172442
0.00172442
0.00172442
0.00172442
0.00172442
0.00172442
0.00172442
0.00172442
0.00172442
0.00172442
0.00172442
0.00172442
0.00172442
0.00172442
0.00172442
0.00172442
0.00172442
0.00172442
0.00172442
0.00172442
0.00172442
0.00172442
0.00172442
0.00172442
0.00172442
0.00172442
0.00172442
0.00172442
0.00172442
0.00172442
0.00172442
0.00172442
0.00172442
0.00172442
0.00172442
0.00172442
0.00172442
0.00172442
0.00172442
0.00172442
0.00172442
0.00172442
0.00172442
0.00172442
0.00172442
0.00172442
0.00172442
0.00172442
0.00172442
0.00172442
0.00172442
0.00172442
0.00172442
0.00172442
0.00172442
0.00172442
0.00172442
0.00172442
0.00172442
0.00172442
0.00172442
0.00172442
0.00172442
0.00172442
0.00172442
0.00172442
0.00172442
0.00172442
0.00172442
0.00172442
0.00172442
0.00172442
0.00172442
0.00172443
0.00172443
0.00172443
0.00172443
0.00172443
0.00172443
0.00172443
0.00172443
0.00172443
0.00172443
0.00172443
0.00172443
0.00172443
0.00172443
0.00172443
0.00172443
0.00172443
0.00172443
0.00172443
0.00172443
0.00172443
0.00172443
0.00172443
0.00172443
0.00172443
0.00172443
0.00172443
0.00172443
0.00172443
0.00172443
0.00172443
0.00172443
0.00172443
0.00172443
0.00172443
0.00172443
0.00172443
0.00172443
0.00172443
0.00172443
0.00172443
0.00172443
0.00172443
0.00172443
0.00172443
0.00172443
0.00172443
0.00172443
0.00172443
0.00172443
0.00172443
0.00172443
0.00172443
0.00172443
0.00172443
0.00172443
0.00172443
0.00172443
0.00172443
0.00172443
0.00172443
0.00172443
0.00172443
0.00172443
0.00172443
0.00172443
0.00172443
0.00172443
0.00172443
0.00172443
0.00172443
0.00172443
0.00172443
0.00172443
0.00172443
0.00172443
0.00172443
0.00172443
0.00172443
0.00172443
0.00172443
0.00172443
0.00172443
0.00172443
0.00172443
0.00172443
0.00172443
0.00172443
0.00172443
0.00172443
0.00172443
0.00172443
0.00172443
0.00172443
0.00172443
0.00172443
0.00172443
0.00172443
0.00172443
0.00172443
0.00172443
0.00172443
0.00172443
0.00172443
0.00172443
0.00172443
0.00172443
0.00172443
0.00172443
0.00172443
0.00172443
0.00172443
0.00172443
0.00172443
0.00172443
0.00172443
0.00172443
0.00172443
0.00172443
0.00172442
0.00172442
0.00172442
0.00172442
0.00172442
0.00172442
0.00172442
0.00172442
0.00172442
0.00172442
0.00172442
0.00172442
0.00172442
0.00172442
0.00172442
0.00172442
0.00172442
0.00172442
0.00172442
0.00172442
0.00172442
0.00172442
0.00172442
0.00172442
0.00172442
0.00172442
0.00172442
0.00172442
0.00172442
0.00172442
0.00172442
0.00172442
0.00172442
0.00172442
0.00172442
0.00172442
0.00172442
0.00172442
0.00172442
0.00172442
0.00172442
0.00172442
0.00172442
0.00172442
0.00172442
0.00172442
0.00172442
0.00172442
0.00172442
0.00172442
0.00172442
0.00172442
0.00172442
0.00172442
0.00172442
0.00172442
0.00172442
0.00172442
0.00172442
0.00172442
0.00172442
0.00172442
0.00172442
0.00172442
0.00172442
0.00172442
0.00172442
0.00172442
0.00172442
0.00172442
0.00172442
0.00172442
0.00172442
0.00172442
0.00172442
0.00172442
0.00172442
0.00172442
0.00172442
0.00172442
0.00172442
0.00172442
0.00172442
0.00172442
0.00172442
0.00172442
0.00172442
0.00172442
0.00172442
0.00172442
0.00172442
0.00172442
0.00172442
0.00172442
0.00172442
0.00172441
0.00172441
0.00172441
0.00172441
0.00172441
0.00172441
0.00172441
0.00172441
0.00172441
0.00172441
0.00172441
0.00172441
0.00172441
0.00172441
0.00172441
0.00172441
0.00172441
0.00172441
0.00172441
0.00172441
0.00172441
0.00172441
0.00172441
0.00172441
0.00172441
0.00172441
0.00172441
0.00172441
0.00172441
0.00172441
0.00172441
0.00172441
0.00172441
0.00172441
0.00172441
0.00172441
0.00172441
0.00172441
0.00172441
0.00172441
0.00172441
0.00172441
0.00172441
0.0017244
0.0017244
0.0017244
0.0017244
0.0017244
0.0017244
0.0017244
0.0017244
0.0017244
0.0017244
0.0017244
0.0017244
0.0017244
0.0017244
0.0017244
0.0017244
0.0017244
0.0017244
0.0017244
0.0017244
0.0017244
0.0017244
0.0017244
0.0017244
0.0017244
0.0017244
0.0017244
0.0017244
0.0017244
0.0017244
0.00172439
0.00172439
0.00172439
0.00172439
0.00172439
0.00172439
0.00172439
0.00172439
0.00172439
0.00172439
0.00172439
0.00172439
0.00172439
0.00172439
0.00172439
0.00172439
0.00172439
0.00172439
0.00172439
0.00172439
0.00172439
0.00172439
0.00172438
0.00172438
0.00172438
0.00172438
0.00172438
0.00172438
0.00172438
0.00172438
0.00172438
0.00172438
0.00172438
0.00172438
0.00172438
0.00172438
0.00172438
0.00172438
0.00172438
0.00172438
0.00172437
0.00172437
0.00172437
0.00172437
0.00172437
0.00172437
0.00172437
0.00172437
0.00172437
0.00172437
0.00172437
0.00172437
0.00172437
0.00172437
0.00172437
0.00172437
0.00172436
0.00172436
0.00172436
0.00172436
0.00172436
0.00172436
0.00172436
0.00172436
0.00172436
0.00172436
0.00172436
0.00172436
0.00172436
0.00172435
0.00172435
0.00172435
0.00172435
0.00172435
0.00172435
0.00172435
0.00172435
0.00172435
0.00172435
0.00172435
0.00172435
0.00172434
0.00172434
0.00172434
0.00172434
0.00172434
0.00172434
0.00172434
0.00172434
0.00172434
0.00172434
0.00172433
0.00172433
0.00172433
0.00172433
0.00172433
0.00172433
0.00172433
0.00172433
0.00172433
0.00172433
0.00172432
0.00172432
0.00172432
0.00172432
0.00172432
0.00172432
0.00172432
0.00172432
0.00172432
0.00172431
0.00172431
0.00172431
0.00172431
0.00172431
0.00172431
0.00172431
0.00172431
0.0017243
0.0017243
0.0017243
0.0017243
0.0017243
0.0017243
0.0017243
0.00172429
0.00172429
0.00172429
0.00172429
0.00172429
0.00172429
0.00172429
0.00172428
0.00172428
0.00172428
0.00172428
0.00172428
0.00172428
0.00172428
0.00172427
0.00172427
0.00172427
0.00172427
0.00172427
0.00172427
0.00172426
0.00172426
0.00172426
0.00172426
0.00172426
0.00172426
0.00172425
0.00172425
0.00172425
0.00172425
0.00172425
0.00172424
0.00172424
0.00172424
0.00172424
0.00172424
0.00172424
0.00172423
0.00172423
0.00172423
0.00172423
0.00172423
0.00172422
0.00172422
0.00172422
0.00172422
0.00172422
0.00172421
0.00172421
0.00172421
0.00172421
0.0017242
0.0017242
0.0017242
0.0017242
0.0017242
0.00172419
0.00172419
0.00172419
0.00172419
0.00172418
0.00172418
0.00172418
0.00172418
0.00172417
0.00172417
0.00172417
0.00172417
0.00172416
0.00172416
0.00172416
0.00172416
0.00172415
0.00172415
0.00172415
0.00172415
0.00172414
0.00172414
0.00172414
0.00172413
0.00172413
0.00172413
0.00172413
0.00172412
0.00172412
0.00172412
0.00172411
0.00172411
0.00172411
0.0017241
0.0017241
0.0017241
0.0017241
0.00172409
0.00172409
0.00172409
0.00172408
0.00172408
0.00172408
0.00172407
0.00172407
0.00172407
0.00172406
0.00172406
0.00172406
0.00172405
0.00172405
0.00172404
0.00172404
0.00172404
0.00172403
0.00172403
0.00172403
0.00172402
0.00172402
0.00172401
0.00172401
0.00172401
0.001724
0.001724
0.001724
0.00172399
0.00172399
0.00172398
0.00172398
0.00172397
0.00172397
0.00172397
0.00172396
0.00172396
0.00172395
0.00172395
0.00172394
0.00172394
0.00172394
0.00172393
0.00172393
0.00172392
0.00172392
0.00172391
0.00172391
0.0017239
0.0017239
0.00172389
0.00172389
0.00172388
0.00172388
0.00172387
0.00172387
0.00172386
0.00172386
0.00172385
0.00172385
0.00172384
0.00172384
0.00172383
0.00172383
0.00172382
0.00172382
0.00172381
0.0017238
0.0017238
0.00172379
0.00172379
0.00172378
0.00172378
0.00172377
0.00172376
0.00172376
0.00172375
0.00172375
0.00172374
0.00172373
0.00172373
0.00172372
0.00172372
0.00172371
0.0017237
0.0017237
0.00172369
0.00172368
0.00172368
0.00172367
0.00172366
0.00172366
0.00172365
0.00172364
0.00172364
0.00172363
0.00172362
0.00172362
0.00172361
0.0017236
0.00172359
0.00172359
0.00172358
0.00172357
0.00172357
0.00172356
0.00172355
0.00172354
0.00172353
0.00172353
0.00172352
0.00172351
0.0017235
0.0017235
0.00172349
0.00172348
0.00172347
0.00172346
0.00172345
0.00172345
0.00172344
0.00172343
0.00172342
0.00172341
0.0017234
0.0017234
0.00172339
0.00172338
0.00172337
0.00172336
0.00172335
0.00172334
0.00172333
0.00172332
0.00172331
0.0017233
0.0017233
0.00172329
0.00172328
0.00172327
0.00172326
0.00172325
0.00172324
0.00172323
0.00172322
0.00172321
0.0017232
0.00172319
0.00172318
0.00172317
0.00172316
0.00172315
0.00172313
0.00172312
0.00172311
0.0017231
0.00172309
0.00172308
0.00172307
0.00172306
0.00172305
0.00172304
0.00172302
0.00172301
0.001723
0.00172299
0.00172298
0.00172297
0.00172295
0.00172294
0.00172293
0.00172292
0.00172291
0.00172289
0.00172288
0.00172287
0.00172286
0.00172284
0.00172283
0.00172282
0.00172281
0.00172279
0.00172278
0.00172277
0.00172275
0.00172274
0.00172273
0.00172271
0.0017227
0.00172269
0.00172267
0.00172266
0.00172264
0.00172263
0.00172262
0.0017226
0.00172259
0.00172257
0.00172256
0.00172254
0.00172253
0.00172251
0.0017225
0.00172248
0.00172247
0.00172245
0.00172244
0.00172242
0.00172241
0.00172239
0.00172238
0.00172236
0.00172235
0.00172233
0.00172231
0.0017223
0.00172228
0.00172226
0.00172225