/*--------------------------------*- C++ -*----------------------------------*\
| =========                 |                                                 |
| \\      /  F ield         | OpenFOAM: The Open Source CFD Toolbox           |
|  \\    /   O peration     | Version:  2312                                  |
|   \\  /    A nd           | Website:  www.openfoam.com                      |
|    \\/     M anipulation  |                                                 |
\*---------------------------------------------------------------------------*/
FoamFile
{
    version     2.0;
    format      ascii;
    arch        "LSB;label=32;scalar=64";
    class       volVectorField;
    location    "48.6";
    object      U;
}
// * * * * * * * * * * * * * * * * * * * * * * * * * * * * * * * * * * * * * //

dimensions      [0 1 -1 0 0 0 0];

internalField   nonuniform List<vector> 
4000
(
(0.0130413 4.63261e-19 0)
(0.0373758 7.04748e-19 0)
(0.0596661 7.62755e-19 0)
(0.0792781 7.29138e-19 0)
(0.096259 7.22945e-19 0)
(0.111015 7.28694e-19 0)
(0.123989 7.33159e-19 0)
(0.135545 7.36503e-19 0)
(0.145961 7.4207e-19 0)
(0.155447 7.51133e-19 0)
(0.164163 7.4969e-19 0)
(0.17223 7.41316e-19 0)
(0.179746 7.31327e-19 0)
(0.186785 7.2075e-19 0)
(0.19341 7.16131e-19 0)
(0.199669 7.1291e-19 0)
(0.205606 7.12667e-19 0)
(0.211254 7.14616e-19 0)
(0.216642 7.16609e-19 0)
(0.221796 7.18541e-19 0)
(0.226738 7.20303e-19 0)
(0.231485 7.22723e-19 0)
(0.236054 7.25704e-19 0)
(0.240459 7.28355e-19 0)
(0.244713 7.30693e-19 0)
(0.248827 7.32746e-19 0)
(0.252811 7.34545e-19 0)
(0.256673 7.36125e-19 0)
(0.260422 7.37519e-19 0)
(0.264064 7.38761e-19 0)
(0.267607 7.39878e-19 0)
(0.271056 7.40896e-19 0)
(0.274417 7.41838e-19 0)
(0.277694 7.42722e-19 0)
(0.280892 7.43565e-19 0)
(0.284016 7.44379e-19 0)
(0.287068 7.45176e-19 0)
(0.290053 7.45965e-19 0)
(0.292974 7.46752e-19 0)
(0.295834 7.47544e-19 0)
(0.298636 7.48344e-19 0)
(0.301381 7.49156e-19 0)
(0.304074 7.49983e-19 0)
(0.306715 7.50826e-19 0)
(0.309308 7.51688e-19 0)
(0.311854 7.52568e-19 0)
(0.314355 7.53469e-19 0)
(0.316812 7.54389e-19 0)
(0.319228 7.55329e-19 0)
(0.321604 7.5629e-19 0)
(0.323942 7.5727e-19 0)
(0.326242 7.58271e-19 0)
(0.328507 7.5929e-19 0)
(0.330737 7.60328e-19 0)
(0.332934 7.61384e-19 0)
(0.335098 7.62458e-19 0)
(0.337231 7.6355e-19 0)
(0.339334 7.64658e-19 0)
(0.341407 7.65782e-19 0)
(0.343453 7.66921e-19 0)
(0.345471 7.68076e-19 0)
(0.347462 7.69246e-19 0)
(0.349427 7.70429e-19 0)
(0.351367 7.71627e-19 0)
(0.353283 7.72837e-19 0)
(0.355175 7.74061e-19 0)
(0.357044 7.75298e-19 0)
(0.358891 7.76548e-19 0)
(0.360716 7.7781e-19 0)
(0.36252 7.79084e-19 0)
(0.364303 7.8037e-19 0)
(0.366065 7.81669e-19 0)
(0.367809 7.82979e-19 0)
(0.369533 7.84301e-19 0)
(0.371238 7.85634e-19 0)
(0.372926 7.86979e-19 0)
(0.374595 7.88335e-19 0)
(0.376247 7.89702e-19 0)
(0.377883 7.91081e-19 0)
(0.379501 7.92469e-19 0)
(0.381104 7.93868e-19 0)
(0.382691 7.95277e-19 0)
(0.384262 7.96694e-19 0)
(0.385818 7.9812e-19 0)
(0.38736 7.99554e-19 0)
(0.388887 8.00993e-19 0)
(0.390399 8.02437e-19 0)
(0.391898 8.03885e-19 0)
(0.393384 8.05335e-19 0)
(0.394856 8.06783e-19 0)
(0.396315 8.08229e-19 0)
(0.397761 8.09669e-19 0)
(0.399195 8.111e-19 0)
(0.400617 8.12519e-19 0)
(0.402026 8.1392e-19 0)
(0.403424 8.15301e-19 0)
(0.40481 8.16655e-19 0)
(0.406185 8.17977e-19 0)
(0.407549 8.19261e-19 0)
(0.408902 8.20501e-19 0)
(0.410244 8.21688e-19 0)
(0.411575 8.22816e-19 0)
(0.412896 8.23876e-19 0)
(0.414207 8.2486e-19 0)
(0.415508 8.25756e-19 0)
(0.416799 8.26557e-19 0)
(0.41808 8.27252e-19 0)
(0.419352 8.27831e-19 0)
(0.420614 8.28282e-19 0)
(0.421868 8.28596e-19 0)
(0.423112 8.28762e-19 0)
(0.424347 8.28837e-19 0)
(0.425574 8.28811e-19 0)
(0.426792 8.28674e-19 0)
(0.428001 8.28415e-19 0)
(0.429202 8.28026e-19 0)
(0.430395 8.27498e-19 0)
(0.43158 8.26823e-19 0)
(0.432757 8.25997e-19 0)
(0.433926 8.25013e-19 0)
(0.435087 8.23868e-19 0)
(0.43624 8.2256e-19 0)
(0.437386 8.21087e-19 0)
(0.438525 8.19451e-19 0)
(0.439656 8.17652e-19 0)
(0.440781 8.15694e-19 0)
(0.441898 8.13582e-19 0)
(0.443008 8.11321e-19 0)
(0.444111 8.0892e-19 0)
(0.445207 8.06388e-19 0)
(0.446297 8.03737e-19 0)
(0.44738 8.00986e-19 0)
(0.448456 7.98156e-19 0)
(0.449526 7.95279e-19 0)
(0.45059 7.924e-19 0)
(0.451647 7.89581e-19 0)
(0.452698 7.8691e-19 0)
(0.453743 7.845e-19 0)
(0.454782 7.82323e-19 0)
(0.455815 7.83135e-19 0)
(0.456842 7.99404e-19 0)
(0.457863 8.15558e-19 0)
(0.458879 8.16208e-19 0)
(0.459888 8.13847e-19 0)
(0.460892 8.11295e-19 0)
(0.461891 8.08472e-19 0)
(0.462884 8.05493e-19 0)
(0.463872 8.02441e-19 0)
(0.464854 7.99374e-19 0)
(0.465831 7.96332e-19 0)
(0.466803 7.93343e-19 0)
(0.467769 7.90425e-19 0)
(0.468731 7.87592e-19 0)
(0.469687 7.8485e-19 0)
(0.470638 7.82203e-19 0)
(0.471585 7.79652e-19 0)
(0.472526 7.77197e-19 0)
(0.473463 7.74836e-19 0)
(0.474395 7.72565e-19 0)
(0.475322 7.70378e-19 0)
(0.476244 7.6827e-19 0)
(0.477162 7.66286e-19 0)
(0.478075 7.64421e-19 0)
(0.478984 7.62622e-19 0)
(0.479888 7.60886e-19 0)
(0.480788 7.59203e-19 0)
(0.481683 7.57614e-19 0)
(0.482574 7.56002e-19 0)
(0.48346 7.5587e-19 0)
(0.484342 7.57625e-19 0)
(0.48522 7.53876e-19 0)
(0.486094 7.40536e-19 0)
(0.486964 7.25814e-19 0)
(0.487829 7.19523e-19 0)
(0.48869 7.18826e-19 0)
(0.489548 7.17737e-19 0)
(0.490401 7.16719e-19 0)
(0.49125 7.15719e-19 0)
(0.492096 7.14736e-19 0)
(0.492937 7.13768e-19 0)
(0.493775 7.12814e-19 0)
(0.494609 7.1187e-19 0)
(0.495439 7.10934e-19 0)
(0.496265 7.1e-19 0)
(0.497087 7.09061e-19 0)
(0.497906 7.08109e-19 0)
(0.498721 7.0713e-19 0)
(0.499533 7.06108e-19 0)
(0.500341 7.05022e-19 0)
(0.501145 7.03844e-19 0)
(0.501946 7.02542e-19 0)
(0.502743 7.01127e-19 0)
(0.503537 6.99557e-19 0)
(0.504327 6.97786e-19 0)
(0.505114 6.95818e-19 0)
(0.505897 6.93608e-19 0)
(0.506677 6.91165e-19 0)
(0.507454 6.88519e-19 0)
(0.508227 6.85784e-19 0)
(0.508998 6.831e-19 0)
(0.509764 6.8239e-19 0)
(0.510528 6.84715e-19 0)
(0.511288 6.79536e-19 0)
(0.512045 6.42296e-19 0)
(0.512799 6.05114e-19 0)
(0.51355 5.9998e-19 0)
(0.514298 6.02275e-19 0)
(0.515043 6.01473e-19 0)
(0.515784 5.98642e-19 0)
(0.516522 5.95752e-19 0)
(0.517258 5.92898e-19 0)
(0.51799 5.90194e-19 0)
(0.51872 5.8767e-19 0)
(0.519446 5.85336e-19 0)
(0.52017 5.83195e-19 0)
(0.52089 5.81203e-19 0)
(0.521608 5.79319e-19 0)
(0.522322 5.77551e-19 0)
(0.523034 5.75867e-19 0)
(0.523743 5.74242e-19 0)
(0.52445 5.72657e-19 0)
(0.525153 5.71096e-19 0)
(0.525853 5.69549e-19 0)
(0.526551 5.68011e-19 0)
(0.527246 5.66477e-19 0)
(0.527939 5.64949e-19 0)
(0.528628 5.63427e-19 0)
(0.529315 5.61915e-19 0)
(0.529999 5.60419e-19 0)
(0.530681 5.58943e-19 0)
(0.53136 5.57493e-19 0)
(0.532036 5.56075e-19 0)
(0.532709 5.54695e-19 0)
(0.53338 5.53355e-19 0)
(0.534049 5.52061e-19 0)
(0.534715 5.50814e-19 0)
(0.535378 5.49619e-19 0)
(0.536038 5.4848e-19 0)
(0.536697 5.47402e-19 0)
(0.537352 5.46388e-19 0)
(0.538006 5.45396e-19 0)
(0.538656 5.4447e-19 0)
(0.539304 5.43607e-19 0)
(0.53995 5.42807e-19 0)
(0.540594 5.42074e-19 0)
(0.541234 5.41412e-19 0)
(0.541873 5.40782e-19 0)
(0.542509 5.40187e-19 0)
(0.543143 5.39623e-19 0)
(0.543774 5.3913e-19 0)
(0.544403 5.38699e-19 0)
(0.54503 5.38331e-19 0)
(0.545654 5.38023e-19 0)
(0.546276 5.37773e-19 0)
(0.546896 5.37577e-19 0)
(0.547513 5.37434e-19 0)
(0.548128 5.37341e-19 0)
(0.548741 5.37294e-19 0)
(0.549351 5.37292e-19 0)
(0.54996 5.37331e-19 0)
(0.550566 5.37409e-19 0)
(0.55117 5.37524e-19 0)
(0.551771 5.37673e-19 0)
(0.552371 5.37854e-19 0)
(0.552968 5.38066e-19 0)
(0.553563 5.38305e-19 0)
(0.554156 5.38571e-19 0)
(0.554747 5.38862e-19 0)
(0.555335 5.39176e-19 0)
(0.555922 5.39512e-19 0)
(0.556506 5.39869e-19 0)
(0.557088 5.40246e-19 0)
(0.557668 5.40641e-19 0)
(0.558246 5.41055e-19 0)
(0.558822 5.41485e-19 0)
(0.559396 5.41931e-19 0)
(0.559968 5.42393e-19 0)
(0.560537 5.42869e-19 0)
(0.561105 5.43361e-19 0)
(0.561671 5.43866e-19 0)
(0.562234 5.44385e-19 0)
(0.562796 5.44916e-19 0)
(0.563355 5.45461e-19 0)
(0.563913 5.46017e-19 0)
(0.564468 5.46586e-19 0)
(0.565022 5.47167e-19 0)
(0.565574 5.47759e-19 0)
(0.566123 5.48362e-19 0)
(0.566671 5.48976e-19 0)
(0.567217 5.49601e-19 0)
(0.567761 5.50236e-19 0)
(0.568302 5.50881e-19 0)
(0.568842 5.51537e-19 0)
(0.56938 5.52202e-19 0)
(0.569917 5.52877e-19 0)
(0.570451 5.53561e-19 0)
(0.570983 5.54254e-19 0)
(0.571514 5.54956e-19 0)
(0.572042 5.55667e-19 0)
(0.572569 5.56387e-19 0)
(0.573094 5.57114e-19 0)
(0.573617 5.5785e-19 0)
(0.574138 5.58594e-19 0)
(0.574657 5.59346e-19 0)
(0.575175 5.60105e-19 0)
(0.575691 5.60872e-19 0)
(0.576205 5.61645e-19 0)
(0.576717 5.62426e-19 0)
(0.577227 5.63214e-19 0)
(0.577735 5.64008e-19 0)
(0.578242 5.64808e-19 0)
(0.578747 5.65615e-19 0)
(0.57925 5.66428e-19 0)
(0.579752 5.67247e-19 0)
(0.580251 5.68071e-19 0)
(0.580749 5.68902e-19 0)
(0.581245 5.69737e-19 0)
(0.58174 5.70578e-19 0)
(0.582232 5.71424e-19 0)
(0.582723 5.72275e-19 0)
(0.583213 5.73131e-19 0)
(0.5837 5.73991e-19 0)
(0.584186 5.74856e-19 0)
(0.58467 5.75725e-19 0)
(0.585153 5.76599e-19 0)
(0.585633 5.77477e-19 0)
(0.586113 5.78358e-19 0)
(0.58659 5.79244e-19 0)
(0.587066 5.80133e-19 0)
(0.58754 5.81026e-19 0)
(0.588012 5.81923e-19 0)
(0.588483 5.82823e-19 0)
(0.588952 5.83726e-19 0)
(0.58942 5.84633e-19 0)
(0.589886 5.85542e-19 0)
(0.59035 5.86455e-19 0)
(0.590813 5.87371e-19 0)
(0.591274 5.88289e-19 0)
(0.591733 5.89211e-19 0)
(0.592191 5.90135e-19 0)
(0.592647 5.91061e-19 0)
(0.593102 5.91991e-19 0)
(0.593555 5.92922e-19 0)
(0.594007 5.93856e-19 0)
(0.594457 5.94793e-19 0)
(0.594905 5.95732e-19 0)
(0.595352 5.96673e-19 0)
(0.595797 5.97616e-19 0)
(0.596241 5.98561e-19 0)
(0.596683 5.99508e-19 0)
(0.597124 6.00458e-19 0)
(0.597563 6.01409e-19 0)
(0.598 6.02363e-19 0)
(0.598436 6.03318e-19 0)
(0.598871 6.04275e-19 0)
(0.599304 6.05234e-19 0)
(0.599735 6.06194e-19 0)
(0.600165 6.07157e-19 0)
(0.600594 6.08121e-19 0)
(0.601021 6.09087e-19 0)
(0.601447 6.10054e-19 0)
(0.601871 6.11023e-19 0)
(0.602293 6.11994e-19 0)
(0.602714 6.12966e-19 0)
(0.603134 6.1394e-19 0)
(0.603552 6.14916e-19 0)
(0.603969 6.15893e-19 0)
(0.604384 6.16871e-19 0)
(0.604798 6.17851e-19 0)
(0.60521 6.18832e-19 0)
(0.605621 6.19815e-19 0)
(0.606031 6.20799e-19 0)
(0.606439 6.21785e-19 0)
(0.606845 6.22772e-19 0)
(0.607251 6.2376e-19 0)
(0.607654 6.2475e-19 0)
(0.608057 6.25741e-19 0)
(0.608458 6.26734e-19 0)
(0.608857 6.27728e-19 0)
(0.609256 6.28723e-19 0)
(0.609652 6.2972e-19 0)
(0.610048 6.30718e-19 0)
(0.610442 6.31717e-19 0)
(0.610835 6.32718e-19 0)
(0.611226 6.3372e-19 0)
(0.611616 6.34723e-19 0)
(0.612004 6.35728e-19 0)
(0.612392 6.36734e-19 0)
(0.612777 6.37741e-19 0)
(0.613162 6.38749e-19 0)
(0.613545 6.39759e-19 0)
(0.613927 6.4077e-19 0)
(0.614307 6.41783e-19 0)
(0.614686 6.42796e-19 0)
(0.615064 6.43811e-19 0)
(0.615441 6.44828e-19 0)
(0.615816 6.45845e-19 0)
(0.616189 6.46864e-19 0)
(0.616562 6.47885e-19 0)
(0.616933 6.48906e-19 0)
(0.617303 6.49929e-19 0)
(0.617672 6.50953e-19 0)
(0.618039 6.51979e-19 0)
(0.618405 6.53006e-19 0)
(0.61877 6.54034e-19 0)
(0.619133 6.55063e-19 0)
(0.619495 6.56094e-19 0)
(0.619856 6.57126e-19 0)
(0.620215 6.5816e-19 0)
(0.620574 6.59195e-19 0)
(0.620931 6.60231e-19 0)
(0.621287 6.61268e-19 0)
(0.621641 6.62307e-19 0)
(0.621994 6.63347e-19 0)
(0.622346 6.64389e-19 0)
(0.622697 6.65431e-19 0)
(0.623047 6.66476e-19 0)
(0.623395 6.67521e-19 0)
(0.623742 6.68568e-19 0)
(0.624088 6.69616e-19 0)
(0.624432 6.70666e-19 0)
(0.624776 6.71717e-19 0)
(0.625118 6.7277e-19 0)
(0.625459 6.73824e-19 0)
(0.625799 6.74879e-19 0)
(0.626137 6.75935e-19 0)
(0.626474 6.76994e-19 0)
(0.62681 6.78053e-19 0)
(0.627145 6.79114e-19 0)
(0.627479 6.80176e-19 0)
(0.627812 6.8124e-19 0)
(0.628143 6.82305e-19 0)
(0.628473 6.83372e-19 0)
(0.628802 6.8444e-19 0)
(0.62913 6.85509e-19 0)
(0.629457 6.8658e-19 0)
(0.629782 6.87653e-19 0)
(0.630106 6.88727e-19 0)
(0.630429 6.89802e-19 0)
(0.630751 6.90879e-19 0)
(0.631072 6.91957e-19 0)
(0.631392 6.93037e-19 0)
(0.63171 6.94119e-19 0)
(0.632028 6.95202e-19 0)
(0.632344 6.96286e-19 0)
(0.632659 6.97372e-19 0)
(0.632973 6.98459e-19 0)
(0.633286 6.99548e-19 0)
(0.633598 7.00639e-19 0)
(0.633908 7.01731e-19 0)
(0.634218 7.02824e-19 0)
(0.634526 7.0392e-19 0)
(0.634833 7.05016e-19 0)
(0.635139 7.06115e-19 0)
(0.635445 7.07215e-19 0)
(0.635748 7.08316e-19 0)
(0.636051 7.09419e-19 0)
(0.636353 7.10524e-19 0)
(0.636654 7.1163e-19 0)
(0.636953 7.12738e-19 0)
(0.637252 7.13848e-19 0)
(0.637549 7.14959e-19 0)
(0.637845 7.16072e-19 0)
(0.638141 7.17186e-19 0)
(0.638435 7.18302e-19 0)
(0.638728 7.1942e-19 0)
(0.63902 7.2054e-19 0)
(0.639311 7.21661e-19 0)
(0.639601 7.22783e-19 0)
(0.63989 7.23908e-19 0)
(0.640178 7.25034e-19 0)
(0.640464 7.26162e-19 0)
(0.64075 7.27292e-19 0)
(0.641035 7.28423e-19 0)
(0.641318 7.29556e-19 0)
(0.641601 7.30691e-19 0)
(0.641882 7.31827e-19 0)
(0.642163 7.32966e-19 0)
(0.642443 7.34106e-19 0)
(0.642721 7.35248e-19 0)
(0.642998 7.36391e-19 0)
(0.643275 7.37537e-19 0)
(0.64355 7.38684e-19 0)
(0.643825 7.39833e-19 0)
(0.644098 7.40984e-19 0)
(0.644371 7.42136e-19 0)
(0.644642 7.43291e-19 0)
(0.644912 7.44447e-19 0)
(0.645182 7.45605e-19 0)
(0.64545 7.46765e-19 0)
(0.645718 7.47927e-19 0)
(0.645984 7.4909e-19 0)
(0.64625 7.50256e-19 0)
(0.646514 7.51423e-19 0)
(0.646778 7.52592e-19 0)
(0.64704 7.53764e-19 0)
(0.647302 7.54937e-19 0)
(0.647562 7.56112e-19 0)
(0.647822 7.57288e-19 0)
(0.64808 7.58467e-19 0)
(0.648338 7.59648e-19 0)
(0.648595 7.60831e-19 0)
(0.648851 7.62015e-19 0)
(0.649106 7.63202e-19 0)
(0.649359 7.6439e-19 0)
(0.649612 7.65581e-19 0)
(0.649864 7.66773e-19 0)
(0.650115 7.67968e-19 0)
(0.650366 7.69164e-19 0)
(0.650615 7.70362e-19 0)
(0.650863 7.71563e-19 0)
(0.65111 7.72765e-19 0)
(0.651357 7.7397e-19 0)
(0.651602 7.75176e-19 0)
(0.651847 7.76385e-19 0)
(0.652091 7.77595e-19 0)
(0.652333 7.78808e-19 0)
(0.652575 7.80023e-19 0)
(0.652816 7.81239e-19 0)
(0.653056 7.82458e-19 0)
(0.653295 7.83679e-19 0)
(0.653533 7.84902e-19 0)
(0.653771 7.86127e-19 0)
(0.654007 7.87354e-19 0)
(0.654243 7.88584e-19 0)
(0.654477 7.89815e-19 0)
(0.654711 7.91048e-19 0)
(0.654944 7.92284e-19 0)
(0.655176 7.93522e-19 0)
(0.655407 7.94762e-19 0)
(0.655638 7.96004e-19 0)
(0.655867 7.97248e-19 0)
(0.656095 7.98495e-19 0)
(0.656323 7.99743e-19 0)
(0.65655 8.00994e-19 0)
(0.656776 8.02247e-19 0)
(0.657001 8.03502e-19 0)
(0.657225 8.04759e-19 0)
(0.657448 8.06019e-19 0)
(0.657671 8.07281e-19 0)
(0.657893 8.08545e-19 0)
(0.658113 8.09811e-19 0)
(0.658333 8.11079e-19 0)
(0.658552 8.1235e-19 0)
(0.658771 8.13623e-19 0)
(0.658988 8.14898e-19 0)
(0.659205 8.16176e-19 0)
(0.659421 8.17455e-19 0)
(0.659636 8.18737e-19 0)
(0.65985 8.20021e-19 0)
(0.660063 8.21308e-19 0)
(0.660276 8.22597e-19 0)
(0.660487 8.23888e-19 0)
(0.660698 8.25181e-19 0)
(0.660908 8.26477e-19 0)
(0.661117 8.27775e-19 0)
(0.661326 8.29076e-19 0)
(0.661533 8.30378e-19 0)
(0.66174 8.31684e-19 0)
(0.661946 8.32991e-19 0)
(0.662152 8.34301e-19 0)
(0.662356 8.35613e-19 0)
(0.66256 8.36927e-19 0)
(0.662762 8.38244e-19 0)
(0.662965 8.39563e-19 0)
(0.663166 8.40885e-19 0)
(0.663366 8.42209e-19 0)
(0.663566 8.43535e-19 0)
(0.663765 8.44864e-19 0)
(0.663963 8.46195e-19 0)
(0.664161 8.47529e-19 0)
(0.664357 8.48865e-19 0)
(0.664553 8.50203e-19 0)
(0.664748 8.51544e-19 0)
(0.664942 8.52887e-19 0)
(0.665136 8.54233e-19 0)
(0.665329 8.55581e-19 0)
(0.665521 8.56932e-19 0)
(0.665712 8.58285e-19 0)
(0.665903 8.5964e-19 0)
(0.666092 8.60998e-19 0)
(0.666281 8.62359e-19 0)
(0.66647 8.63722e-19 0)
(0.666657 8.65087e-19 0)
(0.666844 8.66455e-19 0)
(0.66703 8.67825e-19 0)
(0.667215 8.69198e-19 0)
(0.6674 8.70573e-19 0)
(0.667584 8.71951e-19 0)
(0.667767 8.73331e-19 0)
(0.667949 8.74714e-19 0)
(0.668131 8.761e-19 0)
(0.668312 8.77487e-19 0)
(0.668492 8.78878e-19 0)
(0.668672 8.80271e-19 0)
(0.668851 8.81666e-19 0)
(0.669029 8.83064e-19 0)
(0.669206 8.84465e-19 0)
(0.669383 8.85868e-19 0)
(0.669559 8.87273e-19 0)
(0.669734 8.88682e-19 0)
(0.669909 8.90092e-19 0)
(0.670082 8.91506e-19 0)
(0.670256 8.92922e-19 0)
(0.670428 8.9434e-19 0)
(0.6706 8.95761e-19 0)
(0.670771 8.97185e-19 0)
(0.670941 8.98611e-19 0)
(0.671111 9.0004e-19 0)
(0.67128 9.01471e-19 0)
(0.671448 9.02905e-19 0)
(0.671616 9.04342e-19 0)
(0.671783 9.05781e-19 0)
(0.671949 9.07223e-19 0)
(0.672115 9.08667e-19 0)
(0.672279 9.10114e-19 0)
(0.672444 9.11564e-19 0)
(0.672607 9.13016e-19 0)
(0.67277 9.14471e-19 0)
(0.672932 9.15928e-19 0)
(0.673094 9.17389e-19 0)
(0.673255 9.18851e-19 0)
(0.673415 9.20317e-19 0)
(0.673575 9.21785e-19 0)
(0.673734 9.23256e-19 0)
(0.673892 9.24729e-19 0)
(0.67405 9.26205e-19 0)
(0.674207 9.27684e-19 0)
(0.674363 9.29165e-19 0)
(0.674519 9.30649e-19 0)
(0.674674 9.32136e-19 0)
(0.674828 9.33625e-19 0)
(0.674982 9.35117e-19 0)
(0.675135 9.36612e-19 0)
(0.675287 9.38109e-19 0)
(0.675439 9.3961e-19 0)
(0.67559 9.41112e-19 0)
(0.675741 9.42618e-19 0)
(0.675891 9.44126e-19 0)
(0.67604 9.45637e-19 0)
(0.676189 9.4715e-19 0)
(0.676337 9.48667e-19 0)
(0.676484 9.50185e-19 0)
(0.676631 9.51707e-19 0)
(0.676778 9.53231e-19 0)
(0.676923 9.54758e-19 0)
(0.677068 9.56288e-19 0)
(0.677212 9.57821e-19 0)
(0.677356 9.59356e-19 0)
(0.677499 9.60894e-19 0)
(0.677642 9.62434e-19 0)
(0.677784 9.63978e-19 0)
(0.677925 9.65524e-19 0)
(0.678066 9.67073e-19 0)
(0.678206 9.68624e-19 0)
(0.678346 9.70179e-19 0)
(0.678485 9.71736e-19 0)
(0.678623 9.73295e-19 0)
(0.678761 9.74858e-19 0)
(0.678898 9.76423e-19 0)
(0.679035 9.77991e-19 0)
(0.679171 9.79562e-19 0)
(0.679306 9.81135e-19 0)
(0.679441 9.82712e-19 0)
(0.679575 9.84291e-19 0)
(0.679709 9.85872e-19 0)
(0.679842 9.87457e-19 0)
(0.679974 9.89044e-19 0)
(0.680106 9.90634e-19 0)
(0.680238 9.92227e-19 0)
(0.680368 9.93822e-19 0)
(0.680499 9.95421e-19 0)
(0.680628 9.97022e-19 0)
(0.680757 9.98626e-19 0)
(0.680886 1.00023e-18 0)
(0.681014 1.00184e-18 0)
(0.681141 1.00345e-18 0)
(0.681268 1.00507e-18 0)
(0.681395 1.00669e-18 0)
(0.68152 1.00831e-18 0)
(0.681645 1.00993e-18 0)
(0.68177 1.01156e-18 0)
(0.681894 1.01319e-18 0)
(0.682018 1.01482e-18 0)
(0.682141 1.01645e-18 0)
(0.682263 1.01809e-18 0)
(0.682385 1.01973e-18 0)
(0.682506 1.02137e-18 0)
(0.682627 1.02302e-18 0)
(0.682748 1.02467e-18 0)
(0.682867 1.02632e-18 0)
(0.682987 1.02797e-18 0)
(0.683105 1.02963e-18 0)
(0.683223 1.03129e-18 0)
(0.683341 1.03295e-18 0)
(0.683458 1.03462e-18 0)
(0.683575 1.03629e-18 0)
(0.683691 1.03796e-18 0)
(0.683806 1.03963e-18 0)
(0.683921 1.04131e-18 0)
(0.684036 1.04299e-18 0)
(0.68415 1.04467e-18 0)
(0.684263 1.04636e-18 0)
(0.684376 1.04804e-18 0)
(0.684489 1.04973e-18 0)
(0.684601 1.05143e-18 0)
(0.684712 1.05313e-18 0)
(0.684823 1.05483e-18 0)
(0.684933 1.05653e-18 0)
(0.685043 1.05823e-18 0)
(0.685152 1.05994e-18 0)
(0.685261 1.06165e-18 0)
(0.68537 1.06337e-18 0)
(0.685478 1.06509e-18 0)
(0.685585 1.06681e-18 0)
(0.685692 1.06853e-18 0)
(0.685798 1.07025e-18 0)
(0.685904 1.07198e-18 0)
(0.68601 1.07372e-18 0)
(0.686115 1.07545e-18 0)
(0.686219 1.07719e-18 0)
(0.686323 1.07893e-18 0)
(0.686426 1.08067e-18 0)
(0.686529 1.08242e-18 0)
(0.686632 1.08417e-18 0)
(0.686734 1.08592e-18 0)
(0.686836 1.08768e-18 0)
(0.686937 1.08944e-18 0)
(0.687037 1.0912e-18 0)
(0.687137 1.09297e-18 0)
(0.687237 1.09474e-18 0)
(0.687336 1.09651e-18 0)
(0.687435 1.09828e-18 0)
(0.687533 1.10006e-18 0)
(0.687631 1.10184e-18 0)
(0.687728 1.10363e-18 0)
(0.687825 1.10541e-18 0)
(0.687922 1.1072e-18 0)
(0.688018 1.109e-18 0)
(0.688113 1.1108e-18 0)
(0.688208 1.1126e-18 0)
(0.688303 1.1144e-18 0)
(0.688397 1.11621e-18 0)
(0.68849 1.11802e-18 0)
(0.688584 1.11983e-18 0)
(0.688677 1.12165e-18 0)
(0.688769 1.12347e-18 0)
(0.688861 1.1253e-18 0)
(0.688952 1.12713e-18 0)
(0.689043 1.12896e-18 0)
(0.689134 1.13079e-18 0)
(0.689224 1.13263e-18 0)
(0.689314 1.13447e-18 0)
(0.689403 1.13632e-18 0)
(0.689492 1.13817e-18 0)
(0.68958 1.14002e-18 0)
(0.689668 1.14188e-18 0)
(0.689756 1.14374e-18 0)
(0.689843 1.14561e-18 0)
(0.689929 1.14748e-18 0)
(0.690016 1.14935e-18 0)
(0.690101 1.15123e-18 0)
(0.690187 1.15311e-18 0)
(0.690272 1.155e-18 0)
(0.690356 1.15689e-18 0)
(0.690441 1.15878e-18 0)
(0.690524 1.16068e-18 0)
(0.690608 1.16259e-18 0)
(0.69069 1.16449e-18 0)
(0.690773 1.16641e-18 0)
(0.690855 1.16832e-18 0)
(0.690937 1.17025e-18 0)
(0.691018 1.17217e-18 0)
(0.691099 1.1741e-18 0)
(0.691179 1.17604e-18 0)
(0.691259 1.17798e-18 0)
(0.691339 1.17993e-18 0)
(0.691418 1.18188e-18 0)
(0.691497 1.18384e-18 0)
(0.691576 1.1858e-18 0)
(0.691654 1.18776e-18 0)
(0.691731 1.18974e-18 0)
(0.691809 1.19172e-18 0)
(0.691886 1.1937e-18 0)
(0.691962 1.19569e-18 0)
(0.692038 1.19769e-18 0)
(0.692114 1.19969e-18 0)
(0.692189 1.2017e-18 0)
(0.692264 1.20371e-18 0)
(0.692339 1.20574e-18 0)
(0.692413 1.20776e-18 0)
(0.692487 1.2098e-18 0)
(0.69256 1.21184e-18 0)
(0.692633 1.21389e-18 0)
(0.692706 1.21594e-18 0)
(0.692778 1.218e-18 0)
(0.69285 1.22007e-18 0)
(0.692922 1.22215e-18 0)
(0.692993 1.22423e-18 0)
(0.693064 1.22631e-18 0)
(0.693134 1.2284e-18 0)
(0.693204 1.2305e-18 0)
(0.693274 1.2326e-18 0)
(0.693344 1.23472e-18 0)
(0.693413 1.23684e-18 0)
(0.693481 1.23896e-18 0)
(0.693549 1.24109e-18 0)
(0.693617 1.24322e-18 0)
(0.693685 1.24537e-18 0)
(0.693752 1.24752e-18 0)
(0.693819 1.24967e-18 0)
(0.693886 1.25184e-18 0)
(0.693952 1.25401e-18 0)
(0.694018 1.25619e-18 0)
(0.694083 1.25837e-18 0)
(0.694148 1.26056e-18 0)
(0.694213 1.26275e-18 0)
(0.694278 1.26495e-18 0)
(0.694342 1.26717e-18 0)
(0.694405 1.26939e-18 0)
(0.694469 1.27161e-18 0)
(0.694532 1.27385e-18 0)
(0.694595 1.27608e-18 0)
(0.694657 1.27833e-18 0)
(0.694719 1.28058e-18 0)
(0.694781 1.28285e-18 0)
(0.694842 1.28511e-18 0)
(0.694904 1.28739e-18 0)
(0.694964 1.28968e-18 0)
(0.695025 1.29197e-18 0)
(0.695085 1.29428e-18 0)
(0.695145 1.29658e-18 0)
(0.695204 1.2989e-18 0)
(0.695263 1.30122e-18 0)
(0.695322 1.30355e-18 0)
(0.695381 1.30589e-18 0)
(0.695439 1.30824e-18 0)
(0.695497 1.3106e-18 0)
(0.695554 1.31296e-18 0)
(0.695612 1.31533e-18 0)
(0.695669 1.31771e-18 0)
(0.695725 1.3201e-18 0)
(0.695782 1.32249e-18 0)
(0.695838 1.3249e-18 0)
(0.695893 1.32731e-18 0)
(0.695949 1.32973e-18 0)
(0.696004 1.33216e-18 0)
(0.696059 1.3346e-18 0)
(0.696113 1.33704e-18 0)
(0.696167 1.33949e-18 0)
(0.696221 1.34195e-18 0)
(0.696275 1.34442e-18 0)
(0.696328 1.3469e-18 0)
(0.696381 1.34938e-18 0)
(0.696434 1.35187e-18 0)
(0.696486 1.35437e-18 0)
(0.696538 1.35688e-18 0)
(0.69659 1.3594e-18 0)
(0.696642 1.36192e-18 0)
(0.696693 1.36445e-18 0)
(0.696744 1.36699e-18 0)
(0.696795 1.36953e-18 0)
(0.696845 1.37209e-18 0)
(0.696895 1.37465e-18 0)
(0.696945 1.37722e-18 0)
(0.696995 1.37979e-18 0)
(0.697044 1.38237e-18 0)
(0.697093 1.38496e-18 0)
(0.697142 1.38756e-18 0)
(0.69719 1.39016e-18 0)
(0.697239 1.39278e-18 0)
(0.697287 1.3954e-18 0)
(0.697334 1.39803e-18 0)
(0.697382 1.40067e-18 0)
(0.697429 1.40331e-18 0)
(0.697476 1.40596e-18 0)
(0.697522 1.40862e-18 0)
(0.697569 1.41129e-18 0)
(0.697615 1.41397e-18 0)
(0.69766 1.41666e-18 0)
(0.697706 1.41935e-18 0)
(0.697751 1.42205e-18 0)
(0.697796 1.42475e-18 0)
(0.697841 1.42747e-18 0)
(0.697886 1.43019e-18 0)
(0.69793 1.43293e-18 0)
(0.697974 1.43566e-18 0)
(0.698018 1.43841e-18 0)
(0.698061 1.44116e-18 0)
(0.698104 1.44392e-18 0)
(0.698147 1.44669e-18 0)
(0.69819 1.44947e-18 0)
(0.698233 1.45225e-18 0)
(0.698275 1.45504e-18 0)
(0.698317 1.45784e-18 0)
(0.698359 1.46064e-18 0)
(0.6984 1.46345e-18 0)
(0.698441 1.46626e-18 0)
(0.698482 1.46909e-18 0)
(0.698523 1.47191e-18 0)
(0.698564 1.47474e-18 0)
(0.698604 1.47758e-18 0)
(0.698644 1.48042e-18 0)
(0.698684 1.48327e-18 0)
(0.698724 1.48612e-18 0)
(0.698763 1.48898e-18 0)
(0.698802 1.49183e-18 0)
(0.698841 1.4947e-18 0)
(0.69888 1.49756e-18 0)
(0.698918 1.50044e-18 0)
(0.698957 1.50331e-18 0)
(0.698995 1.50619e-18 0)
(0.699032 1.50907e-18 0)
(0.69907 1.51195e-18 0)
(0.699107 1.51483e-18 0)
(0.699145 1.51772e-18 0)
(0.699181 1.52061e-18 0)
(0.699218 1.5235e-18 0)
(0.699255 1.5264e-18 0)
(0.699291 1.52929e-18 0)
(0.699327 1.53218e-18 0)
(0.699363 1.53507e-18 0)
(0.699398 1.53796e-18 0)
(0.699434 1.54085e-18 0)
(0.699469 1.54374e-18 0)
(0.699504 1.54662e-18 0)
(0.699539 1.5495e-18 0)
(0.699573 1.55237e-18 0)
(0.699608 1.55524e-18 0)
(0.699642 1.55811e-18 0)
(0.699676 1.56097e-18 0)
(0.69971 1.56383e-18 0)
(0.699743 1.56668e-18 0)
(0.699776 1.56952e-18 0)
(0.69981 1.57235e-18 0)
(0.699842 1.57517e-18 0)
(0.699875 1.57799e-18 0)
(0.699908 1.58079e-18 0)
(0.69994 1.58358e-18 0)
(0.699972 1.58636e-18 0)
(0.700004 1.58913e-18 0)
(0.700036 1.59188e-18 0)
(0.700068 1.59462e-18 0)
(0.700099 1.59734e-18 0)
(0.70013 1.60005e-18 0)
(0.700161 1.60274e-18 0)
(0.700192 1.60541e-18 0)
(0.700223 1.60807e-18 0)
(0.700253 1.6107e-18 0)
(0.700283 1.61332e-18 0)
(0.700313 1.61591e-18 0)
(0.700343 1.61849e-18 0)
(0.700373 1.62104e-18 0)
(0.700402 1.62357e-18 0)
(0.700432 1.62607e-18 0)
(0.700461 1.62855e-18 0)
(0.70049 1.631e-18 0)
(0.700519 1.63343e-18 0)
(0.700547 1.63583e-18 0)
(0.700576 1.6382e-18 0)
(0.700604 1.64054e-18 0)
(0.700632 1.64285e-18 0)
(0.70066 1.64513e-18 0)
(0.700688 1.64737e-18 0)
(0.700715 1.64957e-18 0)
(0.700743 1.65174e-18 0)
(0.70077 1.65387e-18 0)
(0.700797 1.65595e-18 0)
(0.700824 1.65798e-18 0)
(0.70085 1.65996e-18 0)
(0.700877 1.66189e-18 0)
(0.700903 1.66376e-18 0)
(0.70093 1.66556e-18 0)
(0.700956 1.6673e-18 0)
(0.700982 1.66897e-18 0)
(0.701007 1.67057e-18 0)
(0.701033 1.67209e-18 0)
(0.701058 1.67352e-18 0)
(0.701083 1.67488e-18 0)
(0.701109 1.67615e-18 0)
(0.701134 1.67734e-18 0)
(0.701158 1.67846e-18 0)
(0.701183 1.6795e-18 0)
(0.701207 1.68049e-18 0)
(0.701232 1.68142e-18 0)
(0.701256 1.68233e-18 0)
(0.70128 1.68324e-18 0)
(0.701304 1.68417e-18 0)
(0.701327 1.68517e-18 0)
(0.701351 1.68628e-18 0)
(0.701374 1.68757e-18 0)
(0.701398 1.6891e-18 0)
(0.701421 1.69096e-18 0)
(0.701444 1.69324e-18 0)
(0.701466 1.69607e-18 0)
(0.701489 1.69956e-18 0)
(0.701512 1.70386e-18 0)
(0.701534 1.70909e-18 0)
(0.701556 1.71538e-18 0)
(0.701578 1.72277e-18 0)
(0.7016 1.73119e-18 0)
(0.701622 1.74099e-18 0)
(0.701644 1.74715e-18 0)
(0.701665 1.73632e-18 0)
(0.701687 1.72897e-18 0)
(0.701708 1.74271e-18 0)
(0.701729 1.75653e-18 0)
(0.70175 1.77548e-18 0)
(0.701771 1.79316e-18 0)
(0.701792 1.80308e-18 0)
(0.701812 1.80937e-18 0)
(0.701833 1.76261e-18 0)
(0.701853 1.717e-18 0)
(0.701873 1.72354e-18 0)
(0.701893 1.73181e-18 0)
(0.701913 1.7221e-18 0)
(0.701933 1.71021e-18 0)
(0.701953 1.71448e-18 0)
(0.701972 1.72603e-18 0)
(0.701991 1.78214e-18 0)
(0.702011 1.83669e-18 0)
(0.70203 1.84274e-18 0)
(0.702049 1.85027e-18 0)
(0.702068 1.87929e-18 0)
(0.702087 1.90989e-18 0)
(0.702105 1.92311e-18 0)
(0.702124 1.92875e-18 0)
(0.702142 1.92118e-18 0)
(0.702161 1.91225e-18 0)
(0.702179 1.9147e-18 0)
(0.702197 1.91161e-18 0)
(0.702215 1.87422e-18 0)
(0.702233 1.83689e-18 0)
(0.70225 1.83109e-18 0)
(0.702268 1.82085e-18 0)
(0.702285 1.83741e-18 0)
(0.702303 1.84941e-18 0)
(0.70232 1.82765e-18 0)
(0.702337 1.81904e-18 0)
(0.702354 1.8271e-18 0)
(0.702371 1.83076e-18 0)
(0.702388 1.81161e-18 0)
(0.702404 1.78121e-18 0)
(0.702421 1.73507e-18 0)
(0.702437 1.6887e-18 0)
(0.702454 1.6572e-18 0)
(0.70247 1.63706e-18 0)
(0.702486 1.6715e-18 0)
(0.702502 1.70671e-18 0)
(0.702518 1.69199e-18 0)
(0.702534 1.66899e-18 0)
(0.70255 1.61844e-18 0)
(0.702565 1.57033e-18 0)
(0.702581 1.55579e-18 0)
(0.702596 1.54405e-18 0)
(0.702611 1.55272e-18 0)
(0.702626 1.56503e-18 0)
(0.702642 1.56038e-18 0)
(0.702657 1.56659e-18 0)
(0.702671 1.59668e-18 0)
(0.702686 1.63028e-18 0)
(0.702701 1.64345e-18 0)
(0.702715 1.65388e-18 0)
(0.70273 1.68225e-18 0)
(0.702744 1.71307e-18 0)
(0.702759 1.72894e-18 0)
(0.702773 1.7329e-18 0)
(0.702787 1.74579e-18 0)
(0.702801 1.75699e-18 0)
(0.702815 1.75312e-18 0)
(0.702829 1.74737e-18 0)
(0.702842 1.71097e-18 0)
(0.702856 1.67222e-18 0)
(0.70287 1.65844e-18 0)
(0.702883 1.65254e-18 0)
(0.702896 1.67529e-18 0)
(0.70291 1.69842e-18 0)
(0.702923 1.69037e-18 0)
(0.702936 1.66927e-18 0)
(0.702949 1.65159e-18 0)
(0.702962 1.63457e-18 0)
(0.702975 1.61634e-18 0)
(0.702987 1.60015e-18 0)
(0.703 1.5895e-18 0)
(0.703012 1.58043e-18 0)
(0.703025 1.56804e-18 0)
(0.703037 1.56701e-18 0)
(0.70305 1.58232e-18 0)
(0.703062 1.59386e-18 0)
(0.703074 1.58463e-18 0)
(0.703086 1.56355e-18 0)
(0.703098 1.54619e-18 0)
(0.70311 1.53071e-18 0)
(0.703122 1.51589e-18 0)
(0.703133 1.51448e-18 0)
(0.703145 1.49915e-18 0)
(0.703157 1.48493e-18 0)
(0.703168 1.48621e-18 0)
(0.703179 1.48577e-18 0)
(0.703191 1.51169e-18 0)
(0.703202 1.53291e-18 0)
(0.703213 1.51804e-18 0)
(0.703224 1.49863e-18 0)
(0.703235 1.47547e-18 0)
(0.703246 1.4526e-18 0)
(0.703257 1.43174e-18 0)
(0.703268 1.43214e-18 0)
(0.703278 1.44851e-18 0)
(0.703289 1.43458e-18 0)
(0.7033 1.40626e-18 0)
(0.70331 1.37793e-18 0)
(0.703321 1.33339e-18 0)
(0.703331 1.28669e-18 0)
(0.703341 1.25123e-18 0)
(0.703351 1.25339e-18 0)
(0.703361 1.30425e-18 0)
(0.703371 1.32366e-18 0)
(0.703381 1.29936e-18 0)
(0.703391 1.27284e-18 0)
(0.703401 1.25919e-18 0)
(0.703411 1.25525e-18 0)
(0.703421 1.25574e-18 0)
(0.70343 1.26069e-18 0)
(0.70344 1.23312e-18 0)
(0.703449 1.20252e-18 0)
(0.703459 1.20134e-18 0)
(0.703468 1.20498e-18 0)
(0.703477 1.20117e-18 0)
(0.703487 1.20966e-18 0)
(0.703496 1.22049e-18 0)
(0.703505 1.22316e-18 0)
(0.703514 1.23252e-18 0)
(0.703523 1.22422e-18 0)
(0.703532 1.21476e-18 0)
(0.703541 1.22662e-18 0)
(0.703549 1.23528e-18 0)
(0.703558 1.23981e-18 0)
(0.703567 1.24017e-18 0)
(0.703575 1.23809e-18 0)
(0.703584 1.23622e-18 0)
(0.703592 1.24504e-18 0)
(0.703601 1.25182e-18 0)
(0.703609 1.24338e-18 0)
(0.703618 1.23242e-18 0)
(0.703626 1.23473e-18 0)
(0.703634 1.23592e-18 0)
(0.703642 1.22416e-18 0)
(0.70365 1.22573e-18 0)
(0.703658 1.21976e-18 0)
(0.703666 1.2099e-18 0)
(0.703674 1.20241e-18 0)
(0.703682 1.18381e-18 0)
(0.70369 1.16971e-18 0)
(0.703697 1.15611e-18 0)
(0.703705 1.13889e-18 0)
(0.703713 1.13343e-18 0)
(0.70372 1.12583e-18 0)
(0.703728 1.1215e-18 0)
(0.703735 1.12833e-18 0)
(0.703742 1.14096e-18 0)
(0.70375 1.14023e-18 0)
(0.703757 1.13683e-18 0)
(0.703764 1.14076e-18 0)
(0.703771 1.1374e-18 0)
(0.703779 1.14491e-18 0)
(0.703786 1.15135e-18 0)
(0.703793 1.14233e-18 0)
(0.7038 1.12421e-18 0)
(0.703807 1.12464e-18 0)
(0.703813 1.12847e-18 0)
(0.70382 1.11857e-18 0)
(0.703827 1.10723e-18 0)
(0.703834 1.07634e-18 0)