/*--------------------------------*- C++ -*----------------------------------*\
| =========                 |                                                 |
| \\      /  F ield         | OpenFOAM: The Open Source CFD Toolbox           |
|  \\    /   O peration     | Version:  2312                                  |
|   \\  /    A nd           | Website:  www.openfoam.com                      |
|    \\/     M anipulation  |                                                 |
\*---------------------------------------------------------------------------*/
FoamFile
{
    version     2.0;
    format      ascii;
    arch        "LSB;label=32;scalar=64";
    class       volScalarField;
    location    "13.85";
    object      k;
}
// * * * * * * * * * * * * * * * * * * * * * * * * * * * * * * * * * * * * * //

dimensions      [0 2 -2 0 0 0 0];

internalField   nonuniform List<scalar> 
1000
(
0.00416564
0.00398876
0.00476318
0.00539212
0.00582978
0.00613931
0.00636579
0.00653657
0.00666848
0.00677227
0.0068551
0.00692188
0.00697611
0.00702033
0.00705645
0.00708591
0.00710982
0.00712908
0.00714439
0.0071563
0.00716529
0.00717173
0.00717595
0.0071782
0.00717872
0.00717769
0.00717528
0.00717163
0.00716686
0.00716107
0.00715437
0.00714683
0.00713852
0.00712951
0.00711986
0.00710961
0.00709881
0.0070875
0.00707572
0.0070635
0.00705087
0.00703786
0.0070245
0.0070108
0.00699678
0.00698248
0.00696789
0.00695304
0.00693795
0.00692263
0.00690709
0.00689134
0.00687539
0.00685926
0.00684296
0.00682648
0.00680985
0.00679306
0.00677614
0.00675907
0.00674188
0.00672456
0.00670713
0.00668958
0.00667193
0.00665417
0.00663632
0.00661838
0.00660035
0.00658223
0.00656404
0.00654577
0.00652743
0.00650902
0.00649054
0.00647201
0.00645341
0.00643476
0.00641606
0.0063973
0.0063785
0.00635966
0.00634077
0.00632185
0.00630288
0.00628389
0.00626486
0.0062458
0.00622671
0.0062076
0.00618846
0.0061693
0.00615013
0.00613093
0.00611172
0.0060925
0.00607326
0.00605401
0.00603475
0.00601549
0.00599622
0.00597695
0.00595767
0.0059384
0.00591913
0.00589985
0.00588059
0.00586132
0.00584207
0.00582282
0.00580358
0.00578436
0.00576514
0.00574594
0.00572676
0.00570759
0.00568844
0.0056693
0.00565019
0.0056311
0.00561203
0.00559299
0.00557396
0.00555497
0.005536
0.00551706
0.00549815
0.00547927
0.00546042
0.0054416
0.00542282
0.00540407
0.00538536
0.00536668
0.00534804
0.00532943
0.00531087
0.00529235
0.00527386
0.00525542
0.00523702
0.00521867
0.00520036
0.00518209
0.00516387
0.0051457
0.00512758
0.0051095
0.00509147
0.0050735
0.00505557
0.00503769
0.00501987
0.0050021
0.00498438
0.00496672
0.00494911
0.00493156
0.00491406
0.00489662
0.00487924
0.00486192
0.00484465
0.00482745
0.0048103
0.00479321
0.00477619
0.00475922
0.00474232
0.00472548
0.00470871
0.00469199
0.00467534
0.00465876
0.00464224
0.00462578
0.0046094
0.00459307
0.00457682
0.00456063
0.00454451
0.00452845
0.00451247
0.00449655
0.00448071
0.00446493
0.00444922
0.00443358
0.00441802
0.00440252
0.00438709
0.00437174
0.00435646
0.00434125
0.00432611
0.00431104
0.00429605
0.00428113
0.00426628
0.00425151
0.00423681
0.00422218
0.00420763
0.00419315
0.00417875
0.00416442
0.00415017
0.00413599
0.00412189
0.00410787
0.00409392
0.00408004
0.00406624
0.00405252
0.00403887
0.0040253
0.00401181
0.00399839
0.00398505
0.00397179
0.0039586
0.00394549
0.00393246
0.0039195
0.00390662
0.00389382
0.0038811
0.00386845
0.00385588
0.00384339
0.00383098
0.00381864
0.00380638
0.0037942
0.0037821
0.00377007
0.00375812
0.00374625
0.00373446
0.00372275
0.00371111
0.00369955
0.00368807
0.00367666
0.00366533
0.00365408
0.00364291
0.00363182
0.0036208
0.00360986
0.00359899
0.00358821
0.0035775
0.00356687
0.00355631
0.00354583
0.00353543
0.0035251
0.00351486
0.00350468
0.00349459
0.00348457
0.00347463
0.00346476
0.00345497
0.00344525
0.00343561
0.00342605
0.00341656
0.00340715
0.00339781
0.00338854
0.00337936
0.00337024
0.0033612
0.00335224
0.00334335
0.00333453
0.00332579
0.00331712
0.00330852
0.0033
0.00329155
0.00328317
0.00327487
0.00326664
0.00325848
0.00325039
0.00324237
0.00323443
0.00322656
0.00321876
0.00321103
0.00320337
0.00319578
0.00318826
0.00318081
0.00317343
0.00316613
0.00315889
0.00315171
0.00314461
0.00313758
0.00313061
0.00312372
0.00311689
0.00311012
0.00310343
0.0030968
0.00309024
0.00308374
0.00307732
0.00307095
0.00306465
0.00305842
0.00305225
0.00304615
0.00304011
0.00303413
0.00302822
0.00302237
0.00301658
0.00301086
0.0030052
0.0029996
0.00299406
0.00298858
0.00298317
0.00297781
0.00297252
0.00296728
0.0029621
0.00295699
0.00295193
0.00294693
0.00294199
0.0029371
0.00293227
0.0029275
0.00292279
0.00291813
0.00291353
0.00290898
0.00290449
0.00290006
0.00289567
0.00289135
0.00288707
0.00288285
0.00287868
0.00287456
0.0028705
0.00286648
0.00286252
0.00285861
0.00285475
0.00285094
0.00284718
0.00284346
0.0028398
0.00283619
0.00283262
0.0028291
0.00282563
0.0028222
0.00281882
0.00281549
0.0028122
0.00280896
0.00280576
0.00280261
0.0027995
0.00279643
0.00279341
0.00279043
0.00278749
0.0027846
0.00278175
0.00277893
0.00277616
0.00277343
0.00277074
0.00276809
0.00276548
0.0027629
0.00276037
0.00275787
0.00275541
0.00275299
0.00275061
0.00274826
0.00274594
0.00274367
0.00274143
0.00273922
0.00273705
0.00273491
0.00273281
0.00273074
0.0027287
0.0027267
0.00272473
0.00272279
0.00272088
0.00271901
0.00271716
0.00271535
0.00271357
0.00271181
0.00271009
0.00270839
0.00270673
0.00270509
0.00270348
0.0027019
0.00270035
0.00269883
0.00269733
0.00269586
0.00269441
0.00269299
0.0026916
0.00269023
0.00268889
0.00268758
0.00268628
0.00268502
0.00268377
0.00268255
0.00268136
0.00268018
0.00267903
0.0026779
0.0026768
0.00267572
0.00267466
0.00267362
0.0026726
0.0026716
0.00267063
0.00266967
0.00266874
0.00266783
0.00266693
0.00266606
0.0026652
0.00266437
0.00266355
0.00266276
0.00266198
0.00266122
0.00266048
0.00265976
0.00265905
0.00265836
0.00265769
0.00265704
0.00265641
0.00265579
0.00265519
0.00265461
0.00265404
0.00265349
0.00265295
0.00265243
0.00265193
0.00265145
0.00265098
0.00265052
0.00265008
0.00264966
0.00264925
0.00264885
0.00264848
0.00264811
0.00264776
0.00264743
0.00264711
0.0026468
0.00264651
0.00264624
0.00264598
0.00264573
0.00264549
0.00264528
0.00264507
0.00264488
0.0026447
0.00264454
0.00264439
0.00264425
0.00264413
0.00264402
0.00264392
0.00264384
0.00264378
0.00264372
0.00264368
0.00264365
0.00264364
0.00264364
0.00264365
0.00264368
0.00264372
0.00264377
0.00264384
0.00264392
0.00264402
0.00264413
0.00264425
0.00264439
0.00264454
0.0026447
0.00264488
0.00264507
0.00264527
0.00264549
0.00264573
0.00264597
0.00264624
0.00264651
0.0026468
0.00264711
0.00264743
0.00264776
0.00264811
0.00264847
0.00264885
0.00264925
0.00264965
0.00265008
0.00265052
0.00265097
0.00265144
0.00265193
0.00265243
0.00265295
0.00265348
0.00265404
0.0026546
0.00265519
0.00265579
0.00265641
0.00265704
0.00265769
0.00265836
0.00265905
0.00265975
0.00266048
0.00266122
0.00266198
0.00266275
0.00266355
0.00266437
0.0026652
0.00266606
0.00266693
0.00266782
0.00266874
0.00266967
0.00267063
0.0026716
0.0026726
0.00267362
0.00267465
0.00267572
0.0026768
0.0026779
0.00267903
0.00268018
0.00268135
0.00268255
0.00268377
0.00268501
0.00268628
0.00268757
0.00268889
0.00269023
0.0026916
0.00269299
0.00269441
0.00269586
0.00269733
0.00269882
0.00270035
0.0027019
0.00270348
0.00270509
0.00270673
0.00270839
0.00271009
0.00271181
0.00271356
0.00271535
0.00271716
0.00271901
0.00272088
0.00272279
0.00272473
0.0027267
0.0027287
0.00273074
0.00273281
0.00273491
0.00273705
0.00273922
0.00274142
0.00274366
0.00274594
0.00274825
0.0027506
0.00275299
0.00275541
0.00275787
0.00276036
0.0027629
0.00276547
0.00276808
0.00277074
0.00277343
0.00277616
0.00277893
0.00278174
0.0027846
0.00278749
0.00279043
0.00279341
0.00279643
0.0027995
0.0028026
0.00280576
0.00280896
0.0028122
0.00281549
0.00281882
0.0028222
0.00282562
0.0028291
0.00283261
0.00283618
0.0028398
0.00284346
0.00284717
0.00285093
0.00285475
0.00285861
0.00286252
0.00286648
0.00287049
0.00287456
0.00287868
0.00288284
0.00288707
0.00289134
0.00289567
0.00290005
0.00290449
0.00290898
0.00291353
0.00291813
0.00292279
0.0029275
0.00293227
0.0029371
0.00294198
0.00294693
0.00295193
0.00295698
0.0029621
0.00296728
0.00297251
0.00297781
0.00298317
0.00298858
0.00299406
0.0029996
0.0030052
0.00301086
0.00301658
0.00302237
0.00302822
0.00303413
0.00304011
0.00304615
0.00305225
0.00305842
0.00306465
0.00307095
0.00307731
0.00308374
0.00309024
0.0030968
0.00310343
0.00311012
0.00311689
0.00312372
0.00313061
0.00313758
0.00314461
0.00315171
0.00315889
0.00316613
0.00317343
0.00318081
0.00318826
0.00319578
0.00320337
0.00321103
0.00321876
0.00322656
0.00323443
0.00324238
0.00325039
0.00325848
0.00326664
0.00327487
0.00328317
0.00329155
0.0033
0.00330852
0.00331712
0.00332579
0.00333453
0.00334335
0.00335224
0.0033612
0.00337024
0.00337936
0.00338855
0.00339781
0.00340715
0.00341656
0.00342605
0.00343561
0.00344525
0.00345497
0.00346476
0.00347463
0.00348457
0.00349459
0.00350469
0.00351486
0.00352511
0.00353543
0.00354583
0.00355631
0.00356687
0.0035775
0.00358821
0.00359899
0.00360986
0.0036208
0.00363182
0.00364291
0.00365408
0.00366533
0.00367666
0.00368807
0.00369955
0.00371111
0.00372275
0.00373446
0.00374626
0.00375813
0.00377007
0.0037821
0.0037942
0.00380639
0.00381864
0.00383098
0.00384339
0.00385589
0.00386845
0.0038811
0.00389382
0.00390663
0.0039195
0.00393246
0.00394549
0.0039586
0.00397179
0.00398505
0.00399839
0.00401181
0.0040253
0.00403887
0.00405252
0.00406624
0.00408004
0.00409392
0.00410787
0.00412189
0.004136
0.00415017
0.00416443
0.00417875
0.00419316
0.00420763
0.00422218
0.00423681
0.00425151
0.00426628
0.00428113
0.00429605
0.00431104
0.00432611
0.00434125
0.00435646
0.00437174
0.00438709
0.00440252
0.00441802
0.00443358
0.00444922
0.00446493
0.00448071
0.00449656
0.00451247
0.00452846
0.00454451
0.00456063
0.00457682
0.00459307
0.0046094
0.00462579
0.00464224
0.00465876
0.00467534
0.00469199
0.00470871
0.00472548
0.00474232
0.00475922
0.00477619
0.00479321
0.0048103
0.00482745
0.00484465
0.00486192
0.00487924
0.00489663
0.00491406
0.00493156
0.00494911
0.00496672
0.00498438
0.0050021
0.00501987
0.00503769
0.00505557
0.0050735
0.00509147
0.0051095
0.00512758
0.0051457
0.00516388
0.00518209
0.00520036
0.00521867
0.00523703
0.00525542
0.00527386
0.00529235
0.00531087
0.00532943
0.00534804
0.00536668
0.00538536
0.00540407
0.00542282
0.0054416
0.00546042
0.00547927
0.00549815
0.00551706
0.005536
0.00555497
0.00557397
0.00559299
0.00561203
0.0056311
0.00565019
0.00566931
0.00568844
0.00570759
0.00572676
0.00574594
0.00576514
0.00578436
0.00580358
0.00582282
0.00584207
0.00586132
0.00588059
0.00589985
0.00591913
0.0059384
0.00595767
0.00597695
0.00599622
0.00601549
0.00603475
0.00605401
0.00607326
0.0060925
0.00611172
0.00613093
0.00615013
0.0061693
0.00618846
0.0062076
0.00622671
0.0062458
0.00626486
0.00628389
0.00630288
0.00632185
0.00634077
0.00635966
0.0063785
0.0063973
0.00641606
0.00643476
0.00645341
0.00647201
0.00649054
0.00650902
0.00652743
0.00654577
0.00656404
0.00658223
0.00660035
0.00661838
0.00663632
0.00665417
0.00667193
0.00668958
0.00670713
0.00672456
0.00674188
0.00675907
0.00677614
0.00679306
0.00680985
0.00682648
0.00684296
0.00685926
0.00687539
0.00689134
0.00690709
0.00692263
0.00693795
0.00695304
0.00696789
0.00698247
0.00699678
0.0070108
0.0070245
0.00703786
0.00705087
0.0070635
0.00707572
0.0070875
0.00709881
0.00710961
0.00711986
0.00712951
0.00713852
0.00714683
0.00715437
0.00716107
0.00716686
0.00717163
0.00717528
0.00717769
0.00717872
0.0071782
0.00717595
0.00717173
0.00716529
0.0071563
0.00714439
0.00712908
0.00710982
0.00708591
0.00705645
0.00702033
0.00697611
0.00692188
0.0068551
0.00677227
0.00666848
0.00653657
0.00636579
0.00613931
0.00582978
0.00539212
0.00476318
0.00398876
0.00416564
)
;

boundaryField
{
    top_wall
    {
        type            kLowReWallFunction;
        value           uniform 7.83542e-05;
    }
    inlet
    {
        type            cyclic;
    }
    bot_wall
    {
        type            kLowReWallFunction;
        value           uniform 7.83542e-05;
    }
    outlet
    {
        type            cyclic;
    }
    frontAndBack
    {
        type            empty;
    }
}


// ************************************************************************* //
