/*--------------------------------*- C++ -*----------------------------------*\
| =========                 |                                                 |
| \\      /  F ield         | OpenFOAM: The Open Source CFD Toolbox           |
|  \\    /   O peration     | Version:  2312                                  |
|   \\  /    A nd           | Website:  www.openfoam.com                      |
|    \\/     M anipulation  |                                                 |
\*---------------------------------------------------------------------------*/
FoamFile
{
    version     2.0;
    format      ascii;
    arch        "LSB;label=32;scalar=64";
    class       volScalarField;
    location    "13.85";
    object      nut;
}
// * * * * * * * * * * * * * * * * * * * * * * * * * * * * * * * * * * * * * //

dimensions      [0 2 -1 0 0 0 0];

internalField   nonuniform List<scalar> 
1000
(
1.44932e-05
2.96215e-05
6.24054e-05
0.000102446
0.000144405
0.000186599
0.000228486
0.000269881
0.000310726
0.000351006
0.00039073
0.000429911
0.000468565
0.000506709
0.000544359
0.000581528
0.000618231
0.000654481
0.000690288
0.000725663
0.000760616
0.000795157
0.000829292
0.000863031
0.000896381
0.000929349
0.000961941
0.000994164
0.00102602
0.00105753
0.00108867
0.00111948
0.00114994
0.00118006
0.00120985
0.00123931
0.00126845
0.00129727
0.00132578
0.00135397
0.00138185
0.00140944
0.00143672
0.0014637
0.00149039
0.0015168
0.00154292
0.00156875
0.0015943
0.00161958
0.00164459
0.00166933
0.00169379
0.001718
0.00174194
0.00176563
0.00178906
0.00181224
0.00183517
0.00185785
0.00188028
0.00190248
0.00192443
0.00194615
0.00196763
0.00198888
0.0020099
0.0020307
0.00205127
0.00207162
0.00209174
0.00211165
0.00213135
0.00215083
0.0021701
0.00218916
0.00220801
0.00222666
0.0022451
0.00226334
0.00228139
0.00229923
0.00231688
0.00233434
0.00235161
0.00236869
0.00238557
0.00240228
0.0024188
0.00243513
0.00245129
0.00246726
0.00248306
0.00249869
0.00251413
0.00252941
0.00254452
0.00255945
0.00257422
0.00258882
0.00260325
0.00261753
0.00263164
0.00264559
0.00265938
0.00267301
0.00268648
0.0026998
0.00271297
0.00272598
0.00273885
0.00275156
0.00276412
0.00277654
0.00278881
0.00280093
0.00281291
0.00282475
0.00283644
0.00284799
0.00285941
0.00287068
0.00288182
0.00289282
0.00290369
0.00291442
0.00292501
0.00293548
0.00294581
0.00295601
0.00296609
0.00297603
0.00298585
0.00299553
0.0030051
0.00301453
0.00302385
0.00303304
0.0030421
0.00305104
0.00305987
0.00306857
0.00307715
0.00308562
0.00309396
0.00310219
0.0031103
0.00311829
0.00312617
0.00313394
0.00314159
0.00314913
0.00315655
0.00316387
0.00317107
0.00317816
0.00318514
0.00319201
0.00319878
0.00320543
0.00321198
0.00321842
0.00322475
0.00323098
0.0032371
0.00324312
0.00324904
0.00325485
0.00326056
0.00326616
0.00327167
0.00327707
0.00328237
0.00328757
0.00329267
0.00329768
0.00330258
0.00330739
0.0033121
0.00331671
0.00332122
0.00332564
0.00332997
0.0033342
0.00333833
0.00334237
0.00334632
0.00335017
0.00335394
0.00335761
0.00336119
0.00336468
0.00336808
0.00337139
0.00337461
0.00337774
0.00338078
0.00338374
0.00338661
0.00338939
0.00339209
0.0033947
0.00339723
0.00339967
0.00340203
0.00340431
0.0034065
0.00340862
0.00341065
0.0034126
0.00341447
0.00341626
0.00341797
0.0034196
0.00342116
0.00342264
0.00342404
0.00342537
0.00342662
0.00342779
0.0034289
0.00342993
0.00343088
0.00343177
0.00343258
0.00343332
0.00343399
0.0034346
0.00343513
0.0034356
0.003436
0.00343633
0.0034366
0.0034368
0.00343693
0.00343701
0.00343702
0.00343696
0.00343685
0.00343668
0.00343644
0.00343615
0.00343579
0.00343538
0.00343492
0.00343439
0.00343381
0.00343318
0.00343249
0.00343175
0.00343095
0.00343011
0.00342921
0.00342827
0.00342727
0.00342623
0.00342514
0.003424
0.00342281
0.00342158
0.00342031
0.00341899
0.00341763
0.00341623
0.00341479
0.00341331
0.00341179
0.00341022
0.00340863
0.00340699
0.00340532
0.00340361
0.00340187
0.0034001
0.00339829
0.00339645
0.00339458
0.00339268
0.00339075
0.00338879
0.00338681
0.00338479
0.00338276
0.00338069
0.0033786
0.00337649
0.00337435
0.0033722
0.00337002
0.00336782
0.0033656
0.00336336
0.00336111
0.00335883
0.00335654
0.00335424
0.00335191
0.00334958
0.00334723
0.00334487
0.00334249
0.00334011
0.00333771
0.00333531
0.00333289
0.00333047
0.00332804
0.0033256
0.00332315
0.0033207
0.00331825
0.00331579
0.00331332
0.00331085
0.00330838
0.00330591
0.00330344
0.00330096
0.00329849
0.00329602
0.00329354
0.00329107
0.0032886
0.00328614
0.00328367
0.00328121
0.00327876
0.00327631
0.00327386
0.00327142
0.00326899
0.00326656
0.00326415
0.00326173
0.00325933
0.00325694
0.00325455
0.00325217
0.00324981
0.00324745
0.0032451
0.00324277
0.00324044
0.00323813
0.00323583
0.00323354
0.00323127
0.00322901
0.00322676
0.00322452
0.0032223
0.00322009
0.0032179
0.00321572
0.00321355
0.0032114
0.00320927
0.00320715
0.00320505
0.00320296
0.00320089
0.00319884
0.0031968
0.00319478
0.00319278
0.00319079
0.00318882
0.00318686
0.00318493
0.00318301
0.00318111
0.00317923
0.00317736
0.00317552
0.00317369
0.00317188
0.00317008
0.00316831
0.00316655
0.00316481
0.00316309
0.00316139
0.00315971
0.00315805
0.0031564
0.00315477
0.00315316
0.00315157
0.00315
0.00314844
0.00314691
0.00314539
0.00314389
0.00314241
0.00314095
0.00313951
0.00313808
0.00313667
0.00313528
0.00313391
0.00313256
0.00313122
0.00312991
0.00312861
0.00312733
0.00312606
0.00312482
0.00312359
0.00312238
0.00312118
0.00312001
0.00311885
0.00311771
0.00311658
0.00311547
0.00311438
0.00311331
0.00311225
0.00311121
0.00311018
0.00310917
0.00310818
0.00310721
0.00310625
0.0031053
0.00310437
0.00310346
0.00310257
0.00310168
0.00310082
0.00309997
0.00309913
0.00309831
0.00309751
0.00309672
0.00309594
0.00309518
0.00309443
0.0030937
0.00309298
0.00309228
0.00309159
0.00309091
0.00309025
0.0030896
0.00308897
0.00308835
0.00308774
0.00308715
0.00308657
0.003086
0.00308544
0.0030849
0.00308437
0.00308386
0.00308336
0.00308287
0.00308239
0.00308192
0.00308147
0.00308103
0.0030806
0.00308018
0.00307978
0.00307938
0.003079
0.00307863
0.00307828
0.00307793
0.0030776
0.00307727
0.00307696
0.00307666
0.00307637
0.00307609
0.00307583
0.00307557
0.00307533
0.00307509
0.00307487
0.00307466
0.00307446
0.00307427
0.00307409
0.00307392
0.00307376
0.00307362
0.00307348
0.00307336
0.00307324
0.00307314
0.00307304
0.00307296
0.00307289
0.00307282
0.00307277
0.00307273
0.0030727
0.00307268
0.00307267
0.00307267
0.00307268
0.0030727
0.00307273
0.00307277
0.00307282
0.00307289
0.00307296
0.00307304
0.00307314
0.00307324
0.00307336
0.00307348
0.00307362
0.00307377
0.00307392
0.00307409
0.00307427
0.00307446
0.00307466
0.00307487
0.0030751
0.00307533
0.00307557
0.00307583
0.0030761
0.00307637
0.00307666
0.00307696
0.00307727
0.0030776
0.00307793
0.00307828
0.00307864
0.00307901
0.00307939
0.00307978
0.00308018
0.0030806
0.00308103
0.00308147
0.00308192
0.00308239
0.00308287
0.00308336
0.00308386
0.00308438
0.00308491
0.00308545
0.003086
0.00308657
0.00308715
0.00308774
0.00308835
0.00308897
0.00308961
0.00309025
0.00309092
0.00309159
0.00309228
0.00309298
0.0030937
0.00309443
0.00309518
0.00309594
0.00309672
0.00309751
0.00309831
0.00309913
0.00309997
0.00310082
0.00310169
0.00310257
0.00310346
0.00310438
0.00310531
0.00310625
0.00310721
0.00310819
0.00310918
0.00311019
0.00311121
0.00311225
0.00311331
0.00311438
0.00311548
0.00311658
0.00311771
0.00311885
0.00312001
0.00312119
0.00312238
0.00312359
0.00312482
0.00312607
0.00312733
0.00312861
0.00312991
0.00313123
0.00313256
0.00313392
0.00313529
0.00313668
0.00313808
0.00313951
0.00314095
0.00314242
0.0031439
0.0031454
0.00314691
0.00314845
0.00315
0.00315158
0.00315317
0.00315478
0.0031564
0.00315805
0.00315971
0.0031614
0.0031631
0.00316482
0.00316656
0.00316831
0.00317009
0.00317188
0.00317369
0.00317552
0.00317737
0.00317923
0.00318112
0.00318302
0.00318493
0.00318687
0.00318882
0.00319079
0.00319278
0.00319478
0.0031968
0.00319884
0.0032009
0.00320297
0.00320505
0.00320716
0.00320927
0.00321141
0.00321356
0.00321572
0.0032179
0.00322009
0.0032223
0.00322452
0.00322676
0.00322901
0.00323127
0.00323355
0.00323583
0.00323813
0.00324045
0.00324277
0.00324511
0.00324745
0.00324981
0.00325217
0.00325455
0.00325694
0.00325933
0.00326173
0.00326415
0.00326656
0.00326899
0.00327142
0.00327386
0.00327631
0.00327876
0.00328121
0.00328367
0.00328614
0.0032886
0.00329107
0.00329354
0.00329601
0.00329849
0.00330096
0.00330344
0.00330591
0.00330838
0.00331085
0.00331332
0.00331578
0.00331824
0.0033207
0.00332315
0.0033256
0.00332803
0.00333047
0.00333289
0.0033353
0.00333771
0.00334011
0.00334249
0.00334486
0.00334723
0.00334957
0.00335191
0.00335423
0.00335654
0.00335883
0.0033611
0.00336336
0.00336559
0.00336781
0.00337001
0.00337219
0.00337435
0.00337648
0.0033786
0.00338069
0.00338275
0.00338479
0.0033868
0.00338879
0.00339075
0.00339268
0.00339458
0.00339645
0.00339829
0.00340009
0.00340187
0.00340361
0.00340531
0.00340699
0.00340862
0.00341022
0.00341178
0.0034133
0.00341478
0.00341623
0.00341763
0.00341899
0.00342031
0.00342158
0.00342281
0.00342399
0.00342513
0.00342622
0.00342727
0.00342826
0.00342921
0.0034301
0.00343095
0.00343174
0.00343248
0.00343317
0.00343381
0.00343439
0.00343491
0.00343538
0.00343579
0.00343614
0.00343644
0.00343667
0.00343685
0.00343696
0.00343701
0.003437
0.00343693
0.00343679
0.00343659
0.00343633
0.00343599
0.00343559
0.00343513
0.00343459
0.00343399
0.00343332
0.00343258
0.00343176
0.00343088
0.00342992
0.00342889
0.00342779
0.00342661
0.00342536
0.00342404
0.00342263
0.00342116
0.0034196
0.00341797
0.00341626
0.00341446
0.00341259
0.00341064
0.00340861
0.0034065
0.00340431
0.00340203
0.00339967
0.00339723
0.0033947
0.00339209
0.00338939
0.00338661
0.00338374
0.00338078
0.00337774
0.0033746
0.00337138
0.00336807
0.00336468
0.00336119
0.00335761
0.00335394
0.00335017
0.00334632
0.00334237
0.00333833
0.00333419
0.00332996
0.00332564
0.00332122
0.00331671
0.00331209
0.00330739
0.00330258
0.00329767
0.00329267
0.00328757
0.00328237
0.00327707
0.00327166
0.00326616
0.00326055
0.00325485
0.00324904
0.00324312
0.0032371
0.00323098
0.00322475
0.00321842
0.00321198
0.00320543
0.00319878
0.00319201
0.00318514
0.00317816
0.00317107
0.00316387
0.00315655
0.00314913
0.00314159
0.00313394
0.00312617
0.00311829
0.0031103
0.00310219
0.00309396
0.00308562
0.00307715
0.00306857
0.00305987
0.00305104
0.0030421
0.00303303
0.00302385
0.00301453
0.0030051
0.00299553
0.00298585
0.00297603
0.00296609
0.00295601
0.00294581
0.00293548
0.00292501
0.00291442
0.00290369
0.00289282
0.00288182
0.00287068
0.00285941
0.00284799
0.00283644
0.00282475
0.00281291
0.00280093
0.00278881
0.00277654
0.00276412
0.00275156
0.00273885
0.00272598
0.00271297
0.0026998
0.00268648
0.00267301
0.00265938
0.00264559
0.00263164
0.00261753
0.00260325
0.00258882
0.00257422
0.00255945
0.00254452
0.00252941
0.00251413
0.00249869
0.00248306
0.00246726
0.00245129
0.00243513
0.0024188
0.00240228
0.00238557
0.00236869
0.00235161
0.00233434
0.00231688
0.00229923
0.00228139
0.00226334
0.0022451
0.00222666
0.00220801
0.00218916
0.0021701
0.00215083
0.00213135
0.00211165
0.00209174
0.00207162
0.00205127
0.0020307
0.00200991
0.00198888
0.00196763
0.00194615
0.00192443
0.00190248
0.00188028
0.00185785
0.00183517
0.00181224
0.00178906
0.00176563
0.00174194
0.001718
0.00169379
0.00166933
0.00164459
0.00161958
0.0015943
0.00156875
0.00154292
0.0015168
0.00149039
0.0014637
0.00143672
0.00140944
0.00138185
0.00135397
0.00132578
0.00129727
0.00126845
0.00123931
0.00120985
0.00118006
0.00114994
0.00111948
0.00108867
0.00105753
0.00102602
0.000994164
0.000961941
0.000929349
0.000896381
0.000863031
0.000829292
0.000795157
0.000760616
0.000725663
0.000690288
0.000654481
0.000618231
0.000581528
0.000544359
0.000506709
0.000468565
0.000429911
0.00039073
0.000351006
0.000310726
0.000269881
0.000228486
0.000186599
0.000144405
0.000102446
6.24054e-05
2.96215e-05
1.44932e-05
)
;

boundaryField
{
    top_wall
    {
        type            nutLowReWallFunction;
        value           uniform 0;
    }
    inlet
    {
        type            cyclic;
    }
    bot_wall
    {
        type            nutLowReWallFunction;
        value           uniform 0;
    }
    outlet
    {
        type            cyclic;
    }
    frontAndBack
    {
        type            empty;
    }
}


// ************************************************************************* //
