/*--------------------------------*- C++ -*----------------------------------*\
| =========                 |                                                 |
| \\      /  F ield         | OpenFOAM: The Open Source CFD Toolbox           |
|  \\    /   O peration     | Version:  2312                                  |
|   \\  /    A nd           | Website:  www.openfoam.com                      |
|    \\/     M anipulation  |                                                 |
\*---------------------------------------------------------------------------*/
FoamFile
{
    version     2.0;
    format      ascii;
    arch        "LSB;label=32;scalar=64";
    class       volVectorField;
    location    "13.85";
    object      U;
}
// * * * * * * * * * * * * * * * * * * * * * * * * * * * * * * * * * * * * * //

dimensions      [0 1 -1 0 0 0 0];

internalField   nonuniform List<vector> 
1000
(
(0.049428 7.84464e-19 0)
(0.117882 1.55935e-18 0)
(0.169151 1.47972e-18 0)
(0.206246 1.45658e-18 0)
(0.234512 1.43563e-18 0)
(0.257213 1.42058e-18 0)
(0.276167 1.41786e-18 0)
(0.29245 1.45095e-18 0)
(0.306734 1.48943e-18 0)
(0.319471 1.49981e-18 0)
(0.330972 1.47856e-18 0)
(0.341465 1.43484e-18 0)
(0.351119 1.43631e-18 0)
(0.360064 1.43957e-18 0)
(0.368402 1.38295e-18 0)
(0.376214 1.34641e-18 0)
(0.383565 1.36061e-18 0)
(0.390511 1.388e-18 0)
(0.397095 1.41069e-18 0)
(0.403357 1.43033e-18 0)
(0.409327 1.4472e-18 0)
(0.415034 1.46161e-18 0)
(0.420501 1.47395e-18 0)
(0.425749 1.48468e-18 0)
(0.430796 1.49314e-18 0)
(0.435658 1.4998e-18 0)
(0.440349 1.50503e-18 0)
(0.444882 1.50914e-18 0)
(0.449267 1.51238e-18 0)
(0.453515 1.51495e-18 0)
(0.457635 1.51699e-18 0)
(0.461634 1.51862e-18 0)
(0.465521 1.51995e-18 0)
(0.469302 1.52103e-18 0)
(0.472983 1.52194e-18 0)
(0.47657 1.5227e-18 0)
(0.480067 1.52336e-18 0)
(0.48348 1.52394e-18 0)
(0.486813 1.52445e-18 0)
(0.49007 1.52492e-18 0)
(0.493254 1.52535e-18 0)
(0.49637 1.52575e-18 0)
(0.499419 1.52612e-18 0)
(0.502406 1.52648e-18 0)
(0.505333 1.52682e-18 0)
(0.508203 1.52715e-18 0)
(0.511018 1.52747e-18 0)
(0.513779 1.52777e-18 0)
(0.516491 1.52808e-18 0)
(0.519153 1.52837e-18 0)
(0.521769 1.52867e-18 0)
(0.52434 1.52896e-18 0)
(0.526868 1.52926e-18 0)
(0.529354 1.52955e-18 0)
(0.5318 1.52985e-18 0)
(0.534207 1.53015e-18 0)
(0.536576 1.53047e-18 0)
(0.53891 1.53078e-18 0)
(0.541208 1.53111e-18 0)
(0.543472 1.53145e-18 0)
(0.545704 1.53181e-18 0)
(0.547903 1.53218e-18 0)
(0.550072 1.53257e-18 0)
(0.552211 1.53298e-18 0)
(0.554321 1.53341e-18 0)
(0.556402 1.53386e-18 0)
(0.558457 1.53434e-18 0)
(0.560484 1.53484e-18 0)
(0.562486 1.53538e-18 0)
(0.564463 1.53594e-18 0)
(0.566415 1.53654e-18 0)
(0.568343 1.53718e-18 0)
(0.570248 1.53785e-18 0)
(0.572131 1.53855e-18 0)
(0.573991 1.5393e-18 0)
(0.57583 1.54009e-18 0)
(0.577648 1.54092e-18 0)
(0.579445 1.54179e-18 0)
(0.581222 1.5427e-18 0)
(0.58298 1.54365e-18 0)
(0.584718 1.54465e-18 0)
(0.586438 1.54569e-18 0)
(0.58814 1.54676e-18 0)
(0.589824 1.54788e-18 0)
(0.59149 1.54903e-18 0)
(0.59314 1.55021e-18 0)
(0.594772 1.55142e-18 0)
(0.596388 1.55266e-18 0)
(0.597989 1.55392e-18 0)
(0.599573 1.55519e-18 0)
(0.601142 1.55648e-18 0)
(0.602696 1.55776e-18 0)
(0.604235 1.55904e-18 0)
(0.605759 1.56032e-18 0)
(0.60727 1.56157e-18 0)
(0.608766 1.56279e-18 0)
(0.610248 1.56398e-18 0)
(0.611718 1.56513e-18 0)
(0.613173 1.56621e-18 0)
(0.614616 1.56724e-18 0)
(0.616046 1.56819e-18 0)
(0.617464 1.56906e-18 0)
(0.618869 1.56984e-18 0)
(0.620262 1.57052e-18 0)
(0.621643 1.57109e-18 0)
(0.623012 1.57156e-18 0)
(0.62437 1.57192e-18 0)
(0.625717 1.57216e-18 0)
(0.627052 1.5723e-18 0)
(0.628376 1.57235e-18 0)
(0.62969 1.57231e-18 0)
(0.630993 1.57222e-18 0)
(0.632285 1.57211e-18 0)
(0.633567 1.57201e-18 0)
(0.634839 1.572e-18 0)
(0.6361 1.57214e-18 0)
(0.637352 1.57254e-18 0)
(0.638594 1.57332e-18 0)
(0.639827 1.57463e-18 0)
(0.64105 1.57666e-18 0)
(0.642263 1.57963e-18 0)
(0.643468 1.58346e-18 0)
(0.644663 1.58843e-18 0)
(0.64585 1.59483e-18 0)
(0.647027 1.603e-18 0)
(0.648196 1.61296e-18 0)
(0.649356 1.62505e-18 0)
(0.650508 1.63964e-18 0)
(0.651651 1.65671e-18 0)
(0.652786 1.67657e-18 0)
(0.653913 1.69904e-18 0)
(0.655032 1.72419e-18 0)
(0.656142 1.75188e-18 0)
(0.657245 1.78142e-18 0)
(0.65834 1.81252e-18 0)
(0.659428 1.84423e-18 0)
(0.660508 1.87597e-18 0)
(0.66158 1.90688e-18 0)
(0.662645 1.93456e-18 0)
(0.663702 1.97435e-18 0)
(0.664753 2.04277e-18 0)
(0.665796 2.10866e-18 0)
(0.666832 2.15617e-18 0)
(0.667861 2.20379e-18 0)
(0.668883 2.2538e-18 0)
(0.669898 2.30331e-18 0)
(0.670906 2.35145e-18 0)
(0.671908 2.39794e-18 0)
(0.672903 2.44199e-18 0)
(0.673891 2.48302e-18 0)
(0.674873 2.52066e-18 0)
(0.675849 2.5545e-18 0)
(0.676818 2.5843e-18 0)
(0.677781 2.60968e-18 0)
(0.678738 2.63069e-18 0)
(0.679688 2.6474e-18 0)
(0.680632 2.65961e-18 0)
(0.681571 2.66739e-18 0)
(0.682503 2.67082e-18 0)
(0.683429 2.66986e-18 0)
(0.68435 2.66442e-18 0)
(0.685265 2.65434e-18 0)
(0.686174 2.63936e-18 0)
(0.687077 2.61916e-18 0)
(0.687974 2.5936e-18 0)
(0.688866 2.56218e-18 0)
(0.689753 2.52427e-18 0)
(0.690634 2.47946e-18 0)
(0.691509 2.42652e-18 0)
(0.692379 2.36584e-18 0)
(0.693244 2.27766e-18 0)
(0.694103 2.09478e-18 0)
(0.694957 1.91171e-18 0)
(0.695806 1.82226e-18 0)
(0.69665 1.75903e-18 0)
(0.697489 1.70216e-18 0)
(0.698322 1.65189e-18 0)
(0.699151 1.60716e-18 0)
(0.699975 1.56703e-18 0)
(0.700793 1.53066e-18 0)
(0.701607 1.49753e-18 0)
(0.702416 1.46716e-18 0)
(0.70322 1.43883e-18 0)
(0.704019 1.41214e-18 0)
(0.704814 1.38645e-18 0)
(0.705604 1.36148e-18 0)
(0.706389 1.33666e-18 0)
(0.707169 1.31176e-18 0)
(0.707945 1.28631e-18 0)
(0.708717 1.25983e-18 0)
(0.709484 1.2322e-18 0)
(0.710246 1.20301e-18 0)
(0.711004 1.17185e-18 0)
(0.711757 1.13835e-18 0)
(0.712507 1.10239e-18 0)
(0.713251 1.06357e-18 0)
(0.713992 1.02144e-18 0)
(0.714728 9.75476e-19 0)
(0.71546 9.24717e-19 0)
(0.716188 8.68219e-19 0)
(0.716911 8.03997e-19 0)
(0.717631 7.3178e-19 0)
(0.718346 6.33311e-19 0)
(0.719057 5.93657e-19 0)
(0.719764 5.42915e-19 0)
(0.720468 4.23763e-19 0)
(0.721167 3.3288e-19 0)
(0.721862 2.51018e-19 0)
(0.722553 1.77894e-19 0)
(0.72324 1.11516e-19 0)
(0.723923 5.0784e-20 0)
(0.724603 -4.98991e-21 0)
(0.725278 -5.64819e-20 0)
(0.72595 -1.03987e-19 0)
(0.726618 -1.47896e-19 0)
(0.727282 -1.88569e-19 0)
(0.727943 -2.26196e-19 0)
(0.7286 -2.61101e-19 0)
(0.729253 -2.93452e-19 0)
(0.729902 -3.23544e-19 0)
(0.730548 -3.51516e-19 0)
(0.73119 -3.77629e-19 0)
(0.731829 -4.01987e-19 0)
(0.732463 -4.24818e-19 0)
(0.733095 -4.46327e-19 0)
(0.733723 -4.66562e-19 0)
(0.734347 -4.85697e-19 0)
(0.734968 -5.03889e-19 0)
(0.735585 -5.21274e-19 0)
(0.736199 -5.37834e-19 0)
(0.73681 -5.53684e-19 0)
(0.737417 -5.68921e-19 0)
(0.73802 -5.83626e-19 0)
(0.738621 -5.97867e-19 0)
(0.739218 -6.11698e-19 0)
(0.739811 -6.25156e-19 0)
(0.740401 -6.38279e-19 0)
(0.740988 -6.51101e-19 0)
(0.741572 -6.63654e-19 0)
(0.742153 -6.75968e-19 0)
(0.74273 -6.88072e-19 0)
(0.743304 -6.99848e-19 0)
(0.743875 -7.11315e-19 0)
(0.744442 -7.22485e-19 0)
(0.745007 -7.33514e-19 0)
(0.745568 -7.44262e-19 0)
(0.746126 -7.5474e-19 0)
(0.746681 -7.64939e-19 0)
(0.747233 -7.74999e-19 0)
(0.747782 -7.84921e-19 0)
(0.748327 -7.94566e-19 0)
(0.74887 -8.03932e-19 0)
(0.74941 -8.13154e-19 0)
(0.749946 -8.22232e-19 0)
(0.75048 -8.31028e-19 0)
(0.75101 -8.39543e-19 0)
(0.751538 -8.4777e-19 0)
(0.752062 -8.55836e-19 0)
(0.752584 -8.63734e-19 0)
(0.753102 -8.7147e-19 0)
(0.753618 -8.7891e-19 0)
(0.754131 -8.8606e-19 0)
(0.754641 -8.92914e-19 0)
(0.755148 -8.99604e-19 0)
(0.755652 -9.06128e-19 0)
(0.756153 -9.12344e-19 0)
(0.756651 -9.18253e-19 0)
(0.757147 -9.23996e-19 0)
(0.757639 -9.29564e-19 0)
(0.758129 -9.34966e-19 0)
(0.758616 -9.40059e-19 0)
(0.7591 -9.44842e-19 0)
(0.759581 -9.49456e-19 0)
(0.76006 -9.53901e-19 0)
(0.760536 -9.58045e-19 0)
(0.761009 -9.61892e-19 0)
(0.761479 -9.6544e-19 0)
(0.761946 -9.68825e-19 0)
(0.762411 -9.72043e-19 0)
(0.762873 -9.75106e-19 0)
(0.763333 -9.77885e-19 0)
(0.763789 -9.80392e-19 0)
(0.764243 -9.82624e-19 0)
(0.764694 -9.84722e-19 0)
(0.765143 -9.86684e-19 0)
(0.765589 -9.8852e-19 0)
(0.766032 -9.90101e-19 0)
(0.766473 -9.9145e-19 0)
(0.76691 -9.92579e-19 0)
(0.767346 -9.93487e-19 0)
(0.767778 -9.94178e-19 0)
(0.768208 -9.94654e-19 0)
(0.768636 -9.9492e-19 0)
(0.769061 -9.9498e-19 0)
(0.769483 -9.9484e-19 0)
(0.769902 -9.94506e-19 0)
(0.770319 -9.93983e-19 0)
(0.770734 -9.93277e-19 0)
(0.771146 -9.92395e-19 0)
(0.771555 -9.91342e-19 0)
(0.771962 -9.90126e-19 0)
(0.772366 -9.88751e-19 0)
(0.772768 -9.87224e-19 0)
(0.773167 -9.85551e-19 0)
(0.773564 -9.83737e-19 0)
(0.773958 -9.81787e-19 0)
(0.774349 -9.79708e-19 0)
(0.774739 -9.77504e-19 0)
(0.775125 -9.75181e-19 0)
(0.775509 -9.72743e-19 0)
(0.775891 -9.70194e-19 0)
(0.77627 -9.67541e-19 0)
(0.776647 -9.64787e-19 0)
(0.777021 -9.61936e-19 0)
(0.777393 -9.58994e-19 0)
(0.777762 -9.55963e-19 0)
(0.778129 -9.52848e-19 0)
(0.778493 -9.49653e-19 0)
(0.778855 -9.46382e-19 0)
(0.779215 -9.43038e-19 0)
(0.779572 -9.39625e-19 0)
(0.779927 -9.36145e-19 0)
(0.780279 -9.32604e-19 0)
(0.780629 -9.29002e-19 0)
(0.780976 -9.25345e-19 0)
(0.781322 -9.21634e-19 0)
(0.781664 -9.17872e-19 0)
(0.782005 -9.14063e-19 0)
(0.782343 -9.10209e-19 0)
(0.782678 -9.06313e-19 0)
(0.783011 -9.02376e-19 0)
(0.783342 -8.98402e-19 0)
(0.783671 -8.94393e-19 0)
(0.783997 -8.90351e-19 0)
(0.784321 -8.86277e-19 0)
(0.784642 -8.82176e-19 0)
(0.784961 -8.78047e-19 0)
(0.785278 -8.73894e-19 0)
(0.785592 -8.69717e-19 0)
(0.785904 -8.6552e-19 0)
(0.786214 -8.61302e-19 0)
(0.786522 -8.57068e-19 0)
(0.786827 -8.52816e-19 0)
(0.78713 -8.4855e-19 0)
(0.787431 -8.44271e-19 0)
(0.787729 -8.3998e-19 0)
(0.788025 -8.35679e-19 0)
(0.788319 -8.31368e-19 0)
(0.78861 -8.27049e-19 0)
(0.788899 -8.22723e-19 0)
(0.789186 -8.18392e-19 0)
(0.789471 -8.14056e-19 0)
(0.789753 -8.09717e-19 0)
(0.790034 -8.05375e-19 0)
(0.790311 -8.01031e-19 0)
(0.790587 -7.96687e-19 0)
(0.790861 -7.92344e-19 0)
(0.791132 -7.88001e-19 0)
(0.791401 -7.8366e-19 0)
(0.791668 -7.79322e-19 0)
(0.791932 -7.74988e-19 0)
(0.792195 -7.70657e-19 0)
(0.792455 -7.66332e-19 0)
(0.792713 -7.62012e-19 0)
(0.792969 -7.57698e-19 0)
(0.793222 -7.53391e-19 0)
(0.793474 -7.49091e-19 0)
(0.793723 -7.44799e-19 0)
(0.79397 -7.40515e-19 0)
(0.794215 -7.3624e-19 0)
(0.794458 -7.31974e-19 0)
(0.794698 -7.27719e-19 0)
(0.794937 -7.23473e-19 0)
(0.795173 -7.19238e-19 0)
(0.795407 -7.15014e-19 0)
(0.795639 -7.10802e-19 0)
(0.795869 -7.06601e-19 0)
(0.796097 -7.02413e-19 0)
(0.796322 -6.98237e-19 0)
(0.796546 -6.94073e-19 0)
(0.796767 -6.89923e-19 0)
(0.796987 -6.85786e-19 0)
(0.797204 -6.81663e-19 0)
(0.797419 -6.77554e-19 0)
(0.797632 -6.73459e-19 0)
(0.797843 -6.69378e-19 0)
(0.798052 -6.65312e-19 0)
(0.798259 -6.61261e-19 0)
(0.798463 -6.57224e-19 0)
(0.798666 -6.53203e-19 0)
(0.798867 -6.49198e-19 0)
(0.799065 -6.45208e-19 0)
(0.799262 -6.41233e-19 0)
(0.799456 -6.37275e-19 0)
(0.799649 -6.33333e-19 0)
(0.799839 -6.29407e-19 0)
(0.800027 -6.25497e-19 0)
(0.800214 -6.21604e-19 0)
(0.800398 -6.17727e-19 0)
(0.80058 -6.13867e-19 0)
(0.800761 -6.10024e-19 0)
(0.800939 -6.06198e-19 0)
(0.801115 -6.02388e-19 0)
(0.80129 -5.98596e-19 0)
(0.801462 -5.94821e-19 0)
(0.801632 -5.91064e-19 0)
(0.801801 -5.87323e-19 0)
(0.801967 -5.836e-19 0)
(0.802131 -5.79895e-19 0)
(0.802294 -5.76207e-19 0)
(0.802454 -5.72537e-19 0)
(0.802613 -5.68884e-19 0)
(0.80277 -5.65249e-19 0)
(0.802924 -5.61632e-19 0)
(0.803077 -5.58032e-19 0)
(0.803228 -5.5445e-19 0)
(0.803377 -5.50886e-19 0)
(0.803524 -5.4734e-19 0)
(0.803669 -5.43812e-19 0)
(0.803812 -5.40302e-19 0)
(0.803953 -5.36809e-19 0)
(0.804092 -5.33334e-19 0)
(0.80423 -5.29878e-19 0)
(0.804365 -5.26439e-19 0)
(0.804499 -5.23018e-19 0)
(0.804631 -5.19615e-19 0)
(0.804761 -5.1623e-19 0)
(0.804889 -5.12863e-19 0)
(0.805015 -5.09514e-19 0)
(0.805139 -5.06183e-19 0)
(0.805262 -5.02869e-19 0)
(0.805382 -4.99574e-19 0)
(0.805501 -4.96296e-19 0)
(0.805618 -4.93036e-19 0)
(0.805733 -4.89794e-19 0)
(0.805846 -4.8657e-19 0)
(0.805957 -4.83363e-19 0)
(0.806067 -4.80174e-19 0)
(0.806174 -4.77003e-19 0)
(0.80628 -4.73849e-19 0)
(0.806384 -4.70713e-19 0)
(0.806486 -4.67595e-19 0)
(0.806587 -4.64494e-19 0)
(0.806685 -4.6141e-19 0)
(0.806782 -4.58344e-19 0)
(0.806877 -4.55295e-19 0)
(0.80697 -4.52264e-19 0)
(0.807062 -4.4925e-19 0)
(0.807151 -4.46253e-19 0)
(0.807239 -4.43273e-19 0)
(0.807325 -4.4031e-19 0)
(0.80741 -4.37365e-19 0)
(0.807492 -4.34436e-19 0)
(0.807573 -4.31525e-19 0)
(0.807652 -4.2863e-19 0)
(0.807729 -4.25752e-19 0)
(0.807804 -4.22891e-19 0)
(0.807878 -4.20046e-19 0)
(0.80795 -4.17218e-19 0)
(0.80802 -4.14407e-19 0)
(0.808089 -4.11612e-19 0)
(0.808155 -4.08834e-19 0)
(0.80822 -4.06072e-19 0)
(0.808283 -4.03326e-19 0)
(0.808345 -4.00597e-19 0)
(0.808404 -3.97883e-19 0)
(0.808462 -3.95186e-19 0)
(0.808519 -3.92505e-19 0)
(0.808573 -3.8984e-19 0)
(0.808626 -3.8719e-19 0)
(0.808677 -3.84556e-19 0)
(0.808726 -3.81939e-19 0)
(0.808774 -3.79336e-19 0)
(0.80882 -3.7675e-19 0)
(0.808864 -3.74178e-19 0)
(0.808906 -3.71623e-19 0)
(0.808947 -3.69082e-19 0)
(0.808986 -3.66557e-19 0)
(0.809023 -3.64047e-19 0)
(0.809059 -3.61553e-19 0)
(0.809093 -3.59073e-19 0)
(0.809125 -3.56609e-19 0)
(0.809156 -3.54159e-19 0)
(0.809184 -3.51724e-19 0)
(0.809212 -3.49304e-19 0)
(0.809237 -3.46899e-19 0)
(0.809261 -3.44509e-19 0)
(0.809283 -3.42127e-19 0)
(0.809303 -3.39755e-19 0)
(0.809322 -3.37393e-19 0)
(0.809338 -3.35039e-19 0)
(0.809354 -3.32694e-19 0)
(0.809367 -3.30358e-19 0)
(0.809379 -3.28031e-19 0)
(0.809389 -3.25716e-19 0)
(0.809398 -3.23412e-19 0)
(0.809404 -3.21119e-19 0)
(0.809409 -3.18837e-19 0)
(0.809413 -3.16564e-19 0)
(0.809415 -3.14302e-19 0)
(0.809415 -3.1205e-19 0)
(0.809413 -3.09808e-19 0)
(0.809409 -3.07577e-19 0)
(0.809404 -3.05356e-19 0)
(0.809398 -3.03145e-19 0)
(0.809389 -3.00945e-19 0)
(0.809379 -2.98755e-19 0)
(0.809367 -2.96577e-19 0)
(0.809354 -2.94407e-19 0)
(0.809338 -2.92245e-19 0)
(0.809322 -2.90091e-19 0)
(0.809303 -2.87946e-19 0)
(0.809283 -2.85808e-19 0)
(0.809261 -2.83679e-19 0)
(0.809237 -2.81557e-19 0)
(0.809212 -2.79449e-19 0)
(0.809184 -2.77353e-19 0)
(0.809156 -2.75271e-19 0)
(0.809125 -2.73201e-19 0)
(0.809093 -2.71143e-19 0)
(0.809059 -2.69098e-19 0)
(0.809023 -2.67066e-19 0)
(0.808986 -2.65046e-19 0)
(0.808947 -2.63038e-19 0)
(0.808906 -2.61042e-19 0)
(0.808864 -2.59058e-19 0)
(0.80882 -2.57087e-19 0)
(0.808774 -2.55127e-19 0)
(0.808726 -2.53179e-19 0)
(0.808677 -2.51244e-19 0)
(0.808626 -2.4932e-19 0)
(0.808573 -2.47407e-19 0)
(0.808519 -2.45507e-19 0)
(0.808462 -2.43617e-19 0)
(0.808404 -2.4174e-19 0)
(0.808345 -2.39874e-19 0)
(0.808283 -2.38019e-19 0)
(0.80822 -2.36176e-19 0)
(0.808155 -2.34344e-19 0)
(0.808089 -2.32523e-19 0)
(0.80802 -2.30714e-19 0)
(0.80795 -2.28916e-19 0)
(0.807878 -2.27128e-19 0)
(0.807804 -2.25352e-19 0)
(0.807729 -2.23587e-19 0)
(0.807652 -2.21832e-19 0)
(0.807573 -2.20089e-19 0)
(0.807492 -2.18356e-19 0)
(0.80741 -2.16634e-19 0)
(0.807325 -2.14922e-19 0)
(0.807239 -2.13222e-19 0)
(0.807151 -2.11531e-19 0)
(0.807062 -2.09852e-19 0)
(0.80697 -2.08183e-19 0)
(0.806877 -2.06524e-19 0)
(0.806782 -2.04875e-19 0)
(0.806685 -2.03237e-19 0)
(0.806587 -2.01609e-19 0)
(0.806486 -1.99992e-19 0)
(0.806384 -1.98384e-19 0)
(0.80628 -1.96787e-19 0)
(0.806174 -1.95199e-19 0)
(0.806067 -1.93622e-19 0)
(0.805957 -1.92055e-19 0)
(0.805846 -1.90497e-19 0)
(0.805733 -1.88949e-19 0)
(0.805618 -1.87411e-19 0)
(0.805501 -1.85883e-19 0)
(0.805382 -1.84365e-19 0)
(0.805262 -1.82856e-19 0)
(0.805139 -1.81357e-19 0)
(0.805015 -1.79868e-19 0)
(0.804889 -1.78388e-19 0)
(0.804761 -1.76917e-19 0)
(0.804631 -1.75456e-19 0)
(0.804499 -1.74004e-19 0)
(0.804365 -1.72562e-19 0)
(0.80423 -1.71129e-19 0)
(0.804092 -1.69705e-19 0)
(0.803953 -1.6829e-19 0)
(0.803812 -1.66885e-19 0)
(0.803669 -1.65489e-19 0)
(0.803524 -1.64101e-19 0)
(0.803377 -1.62723e-19 0)
(0.803228 -1.61354e-19 0)
(0.803077 -1.59994e-19 0)
(0.802924 -1.58643e-19 0)
(0.80277 -1.573e-19 0)
(0.802613 -1.55967e-19 0)
(0.802454 -1.54642e-19 0)
(0.802294 -1.53326e-19 0)
(0.802131 -1.52018e-19 0)
(0.801967 -1.5072e-19 0)
(0.801801 -1.4943e-19 0)
(0.801632 -1.48148e-19 0)
(0.801462 -1.46875e-19 0)
(0.80129 -1.45611e-19 0)
(0.801115 -1.44355e-19 0)
(0.800939 -1.43108e-19 0)
(0.800761 -1.41869e-19 0)
(0.80058 -1.40638e-19 0)
(0.800398 -1.39416e-19 0)
(0.800214 -1.38202e-19 0)
(0.800027 -1.36996e-19 0)
(0.799839 -1.35799e-19 0)
(0.799649 -1.34609e-19 0)
(0.799456 -1.33428e-19 0)
(0.799262 -1.32255e-19 0)
(0.799065 -1.3109e-19 0)
(0.798867 -1.29933e-19 0)
(0.798666 -1.28784e-19 0)
(0.798463 -1.27643e-19 0)
(0.798259 -1.2651e-19 0)
(0.798052 -1.25384e-19 0)
(0.797843 -1.24267e-19 0)
(0.797632 -1.23157e-19 0)
(0.797419 -1.22056e-19 0)
(0.797204 -1.20962e-19 0)
(0.796987 -1.19875e-19 0)
(0.796767 -1.18797e-19 0)
(0.796546 -1.17726e-19 0)
(0.796322 -1.16662e-19 0)
(0.796097 -1.15607e-19 0)
(0.795869 -1.14559e-19 0)
(0.795639 -1.13518e-19 0)
(0.795407 -1.12485e-19 0)
(0.795173 -1.11459e-19 0)
(0.794937 -1.10441e-19 0)
(0.794698 -1.0943e-19 0)
(0.794458 -1.08426e-19 0)
(0.794215 -1.0743e-19 0)
(0.79397 -1.06441e-19 0)
(0.793723 -1.05459e-19 0)
(0.793474 -1.04484e-19 0)
(0.793222 -1.03517e-19 0)
(0.792969 -1.02557e-19 0)
(0.792713 -1.01604e-19 0)
(0.792455 -1.00658e-19 0)
(0.792195 -9.97188e-20 0)
(0.791932 -9.87868e-20 0)
(0.791668 -9.78619e-20 0)
(0.791401 -9.69439e-20 0)
(0.791132 -9.60328e-20 0)
(0.790861 -9.51286e-20 0)
(0.790587 -9.42313e-20 0)
(0.790312 -9.33408e-20 0)
(0.790034 -9.24571e-20 0)
(0.789753 -9.15802e-20 0)
(0.789471 -9.071e-20 0)
(0.789186 -8.98465e-20 0)
(0.788899 -8.89896e-20 0)
(0.78861 -8.81394e-20 0)
(0.788319 -8.72958e-20 0)
(0.788025 -8.64587e-20 0)
(0.787729 -8.56282e-20 0)
(0.787431 -8.48042e-20 0)
(0.78713 -8.39867e-20 0)
(0.786827 -8.31756e-20 0)
(0.786522 -8.23709e-20 0)
(0.786214 -8.15726e-20 0)
(0.785905 -8.07807e-20 0)
(0.785592 -7.9995e-20 0)
(0.785278 -7.92157e-20 0)
(0.784961 -7.84425e-20 0)
(0.784642 -7.76756e-20 0)
(0.784321 -7.69149e-20 0)
(0.783997 -7.61604e-20 0)
(0.783671 -7.54119e-20 0)
(0.783342 -7.46696e-20 0)
(0.783011 -7.39333e-20 0)
(0.782678 -7.32031e-20 0)
(0.782343 -7.24788e-20 0)
(0.782005 -7.17605e-20 0)
(0.781664 -7.10481e-20 0)
(0.781322 -7.03416e-20 0)
(0.780977 -6.9641e-20 0)
(0.780629 -6.89463e-20 0)
(0.780279 -6.82573e-20 0)
(0.779927 -6.75741e-20 0)
(0.779572 -6.68966e-20 0)
(0.779215 -6.62249e-20 0)
(0.778855 -6.55588e-20 0)
(0.778493 -6.48984e-20 0)
(0.778129 -6.42435e-20 0)
(0.777762 -6.35943e-20 0)
(0.777393 -6.29506e-20 0)
(0.777021 -6.23124e-20 0)
(0.776647 -6.16797e-20 0)
(0.77627 -6.10525e-20 0)
(0.775891 -6.04306e-20 0)
(0.775509 -5.98142e-20 0)
(0.775125 -5.92031e-20 0)
(0.774739 -5.85973e-20 0)
(0.774349 -5.79969e-20 0)
(0.773958 -5.74017e-20 0)
(0.773564 -5.68117e-20 0)
(0.773167 -5.62269e-20 0)
(0.772768 -5.56473e-20 0)
(0.772366 -5.50728e-20 0)
(0.771962 -5.45034e-20 0)
(0.771555 -5.39391e-20 0)
(0.771146 -5.33798e-20 0)
(0.770734 -5.28255e-20 0)
(0.770319 -5.22762e-20 0)
(0.769902 -5.17319e-20 0)
(0.769483 -5.11924e-20 0)
(0.769061 -5.06578e-20 0)
(0.768636 -5.01281e-20 0)
(0.768208 -4.96032e-20 0)
(0.767778 -4.90831e-20 0)
(0.767346 -4.85677e-20 0)
(0.76691 -4.80571e-20 0)
(0.766473 -4.75511e-20 0)
(0.766032 -4.70498e-20 0)
(0.765589 -4.65531e-20 0)
(0.765143 -4.6061e-20 0)
(0.764694 -4.55735e-20 0)
(0.764243 -4.50905e-20 0)
(0.763789 -4.4612e-20 0)
(0.763333 -4.4138e-20 0)
(0.762873 -4.36684e-20 0)
(0.762411 -4.32033e-20 0)
(0.761946 -4.27425e-20 0)
(0.761479 -4.22861e-20 0)
(0.761009 -4.18339e-20 0)
(0.760536 -4.13861e-20 0)
(0.76006 -4.09425e-20 0)
(0.759581 -4.05031e-20 0)
(0.7591 -4.0068e-20 0)
(0.758616 -3.9637e-20 0)
(0.758129 -3.92101e-20 0)
(0.757639 -3.87873e-20 0)
(0.757147 -3.83686e-20 0)
(0.756651 -3.7954e-20 0)
(0.756153 -3.75433e-20 0)
(0.755652 -3.71367e-20 0)
(0.755148 -3.67339e-20 0)
(0.754641 -3.63352e-20 0)
(0.754131 -3.59403e-20 0)
(0.753618 -3.55492e-20 0)
(0.753102 -3.5162e-20 0)
(0.752584 -3.47786e-20 0)
(0.752062 -3.4399e-20 0)
(0.751538 -3.40231e-20 0)
(0.75101 -3.3651e-20 0)
(0.75048 -3.32825e-20 0)
(0.749946 -3.29177e-20 0)
(0.74941 -3.25565e-20 0)
(0.74887 -3.21989e-20 0)
(0.748327 -3.18449e-20 0)
(0.747782 -3.14944e-20 0)
(0.747233 -3.11475e-20 0)
(0.746681 -3.0804e-20 0)
(0.746126 -3.0464e-20 0)
(0.745568 -3.01274e-20 0)
(0.745007 -2.97943e-20 0)
(0.744442 -2.94645e-20 0)
(0.743875 -2.9138e-20 0)
(0.743304 -2.88149e-20 0)
(0.74273 -2.84951e-20 0)
(0.742153 -2.81785e-20 0)
(0.741572 -2.78652e-20 0)
(0.740988 -2.75551e-20 0)
(0.740401 -2.72481e-20 0)
(0.739811 -2.69444e-20 0)
(0.739218 -2.66437e-20 0)
(0.738621 -2.63462e-20 0)
(0.73802 -2.60517e-20 0)
(0.737417 -2.57603e-20 0)
(0.73681 -2.5472e-20 0)
(0.736199 -2.51866e-20 0)
(0.735585 -2.49042e-20 0)
(0.734968 -2.46248e-20 0)
(0.734347 -2.43482e-20 0)
(0.733723 -2.40746e-20 0)
(0.733095 -2.38039e-20 0)
(0.732463 -2.3536e-20 0)
(0.731828 -2.32709e-20 0)
(0.73119 -2.30086e-20 0)
(0.730548 -2.27491e-20 0)
(0.729902 -2.24924e-20 0)
(0.729253 -2.22383e-20 0)
(0.7286 -2.1987e-20 0)
(0.727943 -2.17384e-20 0)
(0.727282 -2.14924e-20 0)
(0.726618 -2.1249e-20 0)
(0.72595 -2.10082e-20 0)
(0.725278 -2.07701e-20 0)
(0.724603 -2.05345e-20 0)
(0.723923 -2.03014e-20 0)
(0.72324 -2.00708e-20 0)
(0.722553 -1.98428e-20 0)
(0.721862 -1.96172e-20 0)
(0.721167 -1.9394e-20 0)
(0.720468 -1.91733e-20 0)
(0.719764 -1.8955e-20 0)
(0.719057 -1.8739e-20 0)
(0.718346 -1.85254e-20 0)
(0.717631 -1.83142e-20 0)
(0.716911 -1.81052e-20 0)
(0.716188 -1.78986e-20 0)
(0.71546 -1.76942e-20 0)
(0.714728 -1.74921e-20 0)
(0.713992 -1.72922e-20 0)
(0.713251 -1.70945e-20 0)
(0.712507 -1.6899e-20 0)
(0.711757 -1.67056e-20 0)
(0.711004 -1.65145e-20 0)
(0.710246 -1.63254e-20 0)
(0.709484 -1.61384e-20 0)
(0.708717 -1.59536e-20 0)
(0.707945 -1.57708e-20 0)
(0.707169 -1.559e-20 0)
(0.706389 -1.54113e-20 0)
(0.705604 -1.52346e-20 0)
(0.704814 -1.50599e-20 0)
(0.704019 -1.48871e-20 0)
(0.70322 -1.47163e-20 0)
(0.702416 -1.45474e-20 0)
(0.701607 -1.43805e-20 0)
(0.700793 -1.42154e-20 0)
(0.699975 -1.40522e-20 0)
(0.699151 -1.38909e-20 0)
(0.698322 -1.37314e-20 0)
(0.697489 -1.35737e-20 0)
(0.69665 -1.34179e-20 0)
(0.695806 -1.32638e-20 0)
(0.694957 -1.31115e-20 0)
(0.694103 -1.29609e-20 0)
(0.693244 -1.28121e-20 0)
(0.692379 -1.2665e-20 0)
(0.691509 -1.25196e-20 0)
(0.690634 -1.23759e-20 0)
(0.689753 -1.22338e-20 0)
(0.688866 -1.20934e-20 0)
(0.687974 -1.19547e-20 0)
(0.687077 -1.18175e-20 0)
(0.686174 -1.1682e-20 0)
(0.685265 -1.1548e-20 0)
(0.68435 -1.14156e-20 0)
(0.683429 -1.12848e-20 0)
(0.682503 -1.11555e-20 0)
(0.681571 -1.10277e-20 0)
(0.680632 -1.09015e-20 0)
(0.679688 -1.07767e-20 0)
(0.678738 -1.06534e-20 0)
(0.677781 -1.05316e-20 0)
(0.676818 -1.04112e-20 0)
(0.675849 -1.02922e-20 0)
(0.674873 -1.01747e-20 0)
(0.673891 -1.00586e-20 0)
(0.672903 -9.94383e-21 0)
(0.671908 -9.83046e-21 0)
(0.670906 -9.71846e-21 0)
(0.669898 -9.6078e-21 0)
(0.668883 -9.49847e-21 0)
(0.667861 -9.39046e-21 0)
(0.666832 -9.28375e-21 0)
(0.665796 -9.17834e-21 0)
(0.664753 -9.0742e-21 0)
(0.663702 -8.97133e-21 0)
(0.662645 -8.86971e-21 0)
(0.66158 -8.76933e-21 0)
(0.660508 -8.67017e-21 0)
(0.659428 -8.57222e-21 0)
(0.65834 -8.47547e-21 0)
(0.657245 -8.37991e-21 0)
(0.656142 -8.28552e-21 0)
(0.655032 -8.1923e-21 0)
(0.653913 -8.10022e-21 0)
(0.652786 -8.00928e-21 0)
(0.651651 -7.91946e-21 0)
(0.650508 -7.83075e-21 0)
(0.649356 -7.74314e-21 0)
(0.648196 -7.65662e-21 0)
(0.647027 -7.57118e-21 0)
(0.645849 -7.4868e-21 0)
(0.644663 -7.40347e-21 0)
(0.643468 -7.32118e-21 0)
(0.642263 -7.23992e-21 0)
(0.64105 -7.15968e-21 0)
(0.639827 -7.08045e-21 0)
(0.638594 -7.0022e-21 0)
(0.637352 -6.92495e-21 0)
(0.6361 -6.84866e-21 0)
(0.634838 -6.77334e-21 0)
(0.633567 -6.69897e-21 0)
(0.632285 -6.62554e-21 0)
(0.630992 -6.55303e-21 0)
(0.62969 -6.48144e-21 0)
(0.628376 -6.41077e-21 0)
(0.627052 -6.34098e-21 0)
(0.625717 -6.27209e-21 0)
(0.62437 -6.20407e-21 0)
(0.623012 -6.13691e-21 0)
(0.621643 -6.07061e-21 0)
(0.620262 -6.00515e-21 0)
(0.618869 -5.94053e-21 0)
(0.617464 -5.87673e-21 0)
(0.616046 -5.81375e-21 0)
(0.614616 -5.75157e-21 0)
(0.613173 -5.69018e-21 0)
(0.611718 -5.62958e-21 0)
(0.610248 -5.56975e-21 0)
(0.608766 -5.51068e-21 0)
(0.60727 -5.45237e-21 0)
(0.605759 -5.3948e-21 0)
(0.604235 -5.33797e-21 0)
(0.602696 -5.28186e-21 0)
(0.601142 -5.22647e-21 0)
(0.599573 -5.17178e-21 0)
(0.597988 -5.11778e-21 0)
(0.596388 -5.06447e-21 0)
(0.594772 -5.01184e-21 0)
(0.59314 -4.95987e-21 0)
(0.59149 -4.90856e-21 0)
(0.589824 -4.8579e-21 0)
(0.58814 -4.80787e-21 0)
(0.586438 -4.75848e-21 0)
(0.584718 -4.7097e-21 0)
(0.58298 -4.66152e-21 0)
(0.581222 -4.61395e-21 0)
(0.579445 -4.56696e-21 0)
(0.577648 -4.52056e-21 0)
(0.57583 -4.47472e-21 0)
(0.573991 -4.42944e-21 0)
(0.572131 -4.38471e-21 0)
(0.570248 -4.34052e-21 0)
(0.568343 -4.29686e-21 0)
(0.566415 -4.25371e-21 0)
(0.564463 -4.21108e-21 0)
(0.562486 -4.16894e-21 0)
(0.560484 -4.1273e-21 0)
(0.558457 -4.08613e-21 0)
(0.556402 -4.04542e-21 0)
(0.554321 -4.00517e-21 0)
(0.552211 -3.96537e-21 0)
(0.550072 -3.926e-21 0)
(0.547903 -3.88705e-21 0)
(0.545704 -3.84852e-21 0)
(0.543472 -3.81038e-21 0)
(0.541208 -3.77263e-21 0)
(0.53891 -3.73525e-21 0)
(0.536576 -3.69824e-21 0)
(0.534207 -3.66158e-21 0)
(0.5318 -3.62525e-21 0)
(0.529354 -3.58925e-21 0)
(0.526868 -3.55355e-21 0)
(0.52434 -3.51815e-21 0)
(0.521769 -3.48303e-21 0)
(0.519153 -3.44817e-21 0)
(0.516491 -3.41357e-21 0)
(0.513779 -3.37919e-21 0)
(0.511018 -3.34503e-21 0)
(0.508203 -3.31107e-21 0)
(0.505333 -3.27728e-21 0)
(0.502406 -3.24366e-21 0)
(0.499419 -3.21017e-21 0)
(0.49637 -3.1768e-21 0)
(0.493254 -3.14352e-21 0)
(0.49007 -3.11032e-21 0)
(0.486813 -3.07715e-21 0)
(0.48348 -3.04401e-21 0)
(0.480067 -3.01086e-21 0)
(0.47657 -2.97766e-21 0)
(0.472983 -2.9444e-21 0)
(0.469302 -2.91102e-21 0)
(0.465521 -2.87749e-21 0)
(0.461634 -2.84378e-21 0)
(0.457635 -2.80984e-21 0)
(0.453515 -2.77561e-21 0)
(0.449267 -2.74106e-21 0)
(0.444882 -2.70611e-21 0)
(0.440349 -2.67071e-21 0)
(0.435658 -2.63478e-21 0)
(0.430796 -2.59825e-21 0)
(0.425749 -2.56104e-21 0)
(0.420501 -2.52303e-21 0)
(0.415034 -2.48412e-21 0)
(0.409327 -2.44419e-21 0)
(0.403357 -2.4031e-21 0)
(0.397095 -2.36066e-21 0)
(0.390511 -2.3167e-21 0)
(0.383565 -2.27099e-21 0)
(0.376214 -2.22326e-21 0)
(0.368402 -2.17318e-21 0)
(0.360064 -2.12037e-21 0)
(0.351119 -2.06435e-21 0)
(0.341465 -2.00453e-21 0)
(0.330972 -1.94013e-21 0)
(0.319471 -1.87018e-21 0)
(0.306734 -1.79334e-21 0)
(0.29245 -1.70778e-21 0)
(0.276167 -1.61089e-21 0)
(0.257213 -1.49875e-21 0)
(0.234512 -1.36511e-21 0)
(0.206246 -1.19941e-21 0)
(0.169151 -9.82728e-22 0)
(0.117882 -6.84148e-22 0)
(0.049428 -2.86488e-22 0)
)
;

boundaryField
{
    top_wall
    {
        type            noSlip;
    }
    inlet
    {
        type            cyclic;
    }
    bot_wall
    {
        type            noSlip;
    }
    outlet
    {
        type            cyclic;
    }
    frontAndBack
    {
        type            empty;
    }
}


// ************************************************************************* //
