/*--------------------------------*- C++ -*----------------------------------*\
| =========                 |                                                 |
| \\      /  F ield         | OpenFOAM: The Open Source CFD Toolbox           |
|  \\    /   O peration     | Version:  2312                                  |
|   \\  /    A nd           | Website:  www.openfoam.com                      |
|    \\/     M anipulation  |                                                 |
\*---------------------------------------------------------------------------*/
FoamFile
{
    version     2.0;
    format      ascii;
    arch        "LSB;label=32;scalar=64";
    class       volScalarField;
    location    "13.675";
    object      k;
}
// * * * * * * * * * * * * * * * * * * * * * * * * * * * * * * * * * * * * * //

dimensions      [0 2 -2 0 0 0 0];

internalField   nonuniform List<scalar> 
1000
(
7.44805e-05
8.96484e-05
0.000536997
0.00161855
0.00293705
0.00402906
0.00482221
0.00538735
0.00579632
0.0060993
0.00632897
0.0065066
0.00664633
0.00675775
0.00684757
0.00692056
0.00698024
0.0070292
0.00706942
0.00710241
0.00712938
0.00715126
0.00716881
0.00718265
0.00719326
0.00720107
0.00720642
0.0072096
0.00721085
0.00721039
0.00720838
0.007205
0.00720036
0.00719458
0.00718776
0.00718
0.00717137
0.00716193
0.00715176
0.00714091
0.00712942
0.00711734
0.00710471
0.00709157
0.00707794
0.00706386
0.00704936
0.00703446
0.00701918
0.00700354
0.00698756
0.00697127
0.00695467
0.00693778
0.00692062
0.0069032
0.00688553
0.00686762
0.00684949
0.00683113
0.00681257
0.00679381
0.00677487
0.00675573
0.00673643
0.00671695
0.00669732
0.00667753
0.00665759
0.00663751
0.00661729
0.00659694
0.00657646
0.00655586
0.00653514
0.0065143
0.00649336
0.00647232
0.00645117
0.00642992
0.00640859
0.00638716
0.00636564
0.00634405
0.00632237
0.00630061
0.00627878
0.00625688
0.00623492
0.00621288
0.00619079
0.00616863
0.00614642
0.00612415
0.00610183
0.00607946
0.00605704
0.00603457
0.00601206
0.00598951
0.00596693
0.0059443
0.00592164
0.00589895
0.00587623
0.00585347
0.00583069
0.00580789
0.00578506
0.00576221
0.00573934
0.00571645
0.00569355
0.00567063
0.0056477
0.00562476
0.00560181
0.00557885
0.00555588
0.00553291
0.00550993
0.00548695
0.00546398
0.005441
0.00541803
0.00539506
0.00537209
0.00534913
0.00532618
0.00530324
0.00528031
0.0052574
0.00523449
0.00521161
0.00518873
0.00516588
0.00514304
0.00512023
0.00509744
0.00507466
0.00505192
0.0050292
0.0050065
0.00498383
0.00496119
0.00493858
0.004916
0.00489346
0.00487095
0.00484847
0.00482603
0.00480362
0.00478126
0.00475893
0.00473664
0.0047144
0.0046922
0.00467004
0.00464792
0.00462586
0.00460383
0.00458186
0.00455994
0.00453807
0.00451624
0.00449448
0.00447276
0.0044511
0.00442949
0.00440795
0.00438645
0.00436502
0.00434365
0.00432234
0.00430109
0.0042799
0.00425878
0.00423772
0.00421673
0.0041958
0.00417494
0.00415415
0.00413343
0.00411279
0.00409221
0.0040717
0.00405127
0.00403092
0.00401063
0.00399043
0.0039703
0.00395025
0.00393028
0.00391039
0.00389058
0.00387086
0.00385121
0.00383165
0.00381218
0.00379279
0.00377348
0.00375426
0.00373513
0.00371609
0.00369714
0.00367828
0.00365951
0.00364084
0.00362225
0.00360376
0.00358537
0.00356706
0.00354886
0.00353075
0.00351274
0.00349483
0.00347701
0.0034593
0.00344169
0.00342417
0.00340676
0.00338946
0.00337225
0.00335515
0.00333815
0.00332126
0.00330447
0.00328779
0.00327121
0.00325475
0.00323839
0.00322214
0.00320599
0.00318996
0.00317404
0.00315823
0.00314252
0.00312693
0.00311145
0.00309609
0.00308083
0.00306569
0.00305066
0.00303575
0.00302095
0.00300626
0.00299169
0.00297723
0.00296289
0.00294866
0.00293455
0.00292056
0.00290668
0.00289292
0.00287927
0.00286574
0.00285233
0.00283903
0.00282585
0.00281279
0.00279984
0.00278701
0.0027743
0.00276171
0.00274923
0.00273687
0.00272462
0.0027125
0.00270049
0.00268859
0.00267681
0.00266515
0.00265361
0.00264218
0.00263087
0.00261967
0.00260859
0.00259762
0.00258677
0.00257603
0.00256541
0.0025549
0.00254451
0.00253423
0.00252406
0.002514
0.00250406
0.00249422
0.0024845
0.00247489
0.00246539
0.002456
0.00244672
0.00243755
0.00242849
0.00241953
0.00241068
0.00240194
0.0023933
0.00238477
0.00237635
0.00236803
0.00235981
0.0023517
0.00234369
0.00233578
0.00232797
0.00232026
0.00231266
0.00230515
0.00229774
0.00229043
0.00228321
0.00227609
0.00226907
0.00226214
0.0022553
0.00224856
0.00224191
0.00223536
0.00222889
0.00222251
0.00221623
0.00221003
0.00220392
0.0021979
0.00219196
0.00218611
0.00218034
0.00217466
0.00216906
0.00216355
0.00215811
0.00215275
0.00214748
0.00214228
0.00213716
0.00213212
0.00212716
0.00212227
0.00211746
0.00211272
0.00210805
0.00210346
0.00209893
0.00209448
0.0020901
0.00208579
0.00208154
0.00207736
0.00207325
0.00206921
0.00206523
0.00206131
0.00205746
0.00205367
0.00204995
0.00204628
0.00204268
0.00203913
0.00203564
0.00203222
0.00202884
0.00202553
0.00202227
0.00201907
0.00201592
0.00201282
0.00200978
0.00200679
0.00200385
0.00200096
0.00199812
0.00199533
0.00199259
0.0019899
0.00198725
0.00198465
0.0019821
0.00197959
0.00197713
0.00197471
0.00197234
0.00197
0.00196771
0.00196546
0.00196325
0.00196108
0.00195896
0.00195687
0.00195481
0.0019528
0.00195083
0.00194889
0.00194698
0.00194512
0.00194328
0.00194148
0.00193972
0.00193799
0.00193629
0.00193463
0.00193299
0.00193139
0.00192982
0.00192828
0.00192677
0.00192529
0.00192383
0.00192241
0.00192102
0.00191965
0.00191831
0.00191699
0.00191571
0.00191444
0.00191321
0.001912
0.00191081
0.00190965
0.00190851
0.0019074
0.00190631
0.00190524
0.00190419
0.00190317
0.00190217
0.00190118
0.00190022
0.00189929
0.00189837
0.00189747
0.00189659
0.00189573
0.00189489
0.00189407
0.00189327
0.00189248
0.00189171
0.00189096
0.00189023
0.00188952
0.00188882
0.00188814
0.00188748
0.00188683
0.00188619
0.00188558
0.00188498
0.00188439
0.00188382
0.00188326
0.00188272
0.00188219
0.00188168
0.00188118
0.00188069
0.00188022
0.00187976
0.00187932
0.00187889
0.00187847
0.00187806
0.00187767
0.00187728
0.00187691
0.00187656
0.00187621
0.00187588
0.00187556
0.00187525
0.00187495
0.00187466
0.00187438
0.00187412
0.00187387
0.00187362
0.00187339
0.00187317
0.00187296
0.00187276
0.00187257
0.00187239
0.00187222
0.00187206
0.00187191
0.00187177
0.00187165
0.00187153
0.00187142
0.00187132
0.00187123
0.00187115
0.00187108
0.00187103
0.00187098
0.00187094
0.00187091
0.00187089
0.00187088
0.00187088
0.00187089
0.00187091
0.00187093
0.00187097
0.00187102
0.00187108
0.00187115
0.00187123
0.00187131
0.00187141
0.00187152
0.00187164
0.00187177
0.0018719
0.00187205
0.00187221
0.00187238
0.00187256
0.00187275
0.00187295
0.00187316
0.00187338
0.00187361
0.00187386
0.00187411
0.00187438
0.00187465
0.00187494
0.00187524
0.00187555
0.00187587
0.0018762
0.00187655
0.00187691
0.00187728
0.00187766
0.00187805
0.00187846
0.00187888
0.00187931
0.00187976
0.00188022
0.00188069
0.00188117
0.00188167
0.00188219
0.00188271
0.00188326
0.00188381
0.00188438
0.00188497
0.00188557
0.00188619
0.00188682
0.00188747
0.00188813
0.00188882
0.00188951
0.00189023
0.00189096
0.00189171
0.00189248
0.00189326
0.00189406
0.00189488
0.00189572
0.00189658
0.00189746
0.00189836
0.00189928
0.00190022
0.00190118
0.00190216
0.00190316
0.00190419
0.00190523
0.0019063
0.00190739
0.00190851
0.00190964
0.00191081
0.00191199
0.0019132
0.00191444
0.0019157
0.00191699
0.0019183
0.00191964
0.00192101
0.0019224
0.00192383
0.00192528
0.00192676
0.00192827
0.00192981
0.00193138
0.00193298
0.00193462
0.00193628
0.00193798
0.00193971
0.00194147
0.00194327
0.0019451
0.00194697
0.00194887
0.00195081
0.00195279
0.0019548
0.00195685
0.00195894
0.00196107
0.00196324
0.00196545
0.0019677
0.00196999
0.00197232
0.0019747
0.00197712
0.00197958
0.00198209
0.00198464
0.00198724
0.00198988
0.00199258
0.00199532
0.00199811
0.00200094
0.00200383
0.00200677
0.00200976
0.00201281
0.0020159
0.00201905
0.00202226
0.00202552
0.00202883
0.0020322
0.00203563
0.00203912
0.00204266
0.00204627
0.00204994
0.00205366
0.00205745
0.0020613
0.00206522
0.0020692
0.00207324
0.00207735
0.00208153
0.00208578
0.00209009
0.00209447
0.00209892
0.00210345
0.00210804
0.00211271
0.00211745
0.00212226
0.00212715
0.00213212
0.00213716
0.00214228
0.00214747
0.00215275
0.0021581
0.00216354
0.00216906
0.00217466
0.00218034
0.00218611
0.00219196
0.0021979
0.00220392
0.00221003
0.00221623
0.00222251
0.00222889
0.00223536
0.00224191
0.00224856
0.0022553
0.00226214
0.00226907
0.00227609
0.00228321
0.00229043
0.00229774
0.00230515
0.00231266
0.00232026
0.00232797
0.00233578
0.00234369
0.0023517
0.00235981
0.00236803
0.00237635
0.00238478
0.00239331
0.00240194
0.00241068
0.00241953
0.00242849
0.00243755
0.00244672
0.00245601
0.0024654
0.0024749
0.00248451
0.00249423
0.00250406
0.002514
0.00252406
0.00253423
0.00254451
0.00255491
0.00256542
0.00257604
0.00258678
0.00259763
0.00260859
0.00261968
0.00263087
0.00264219
0.00265361
0.00266516
0.00267682
0.0026886
0.00270049
0.0027125
0.00272463
0.00273687
0.00274923
0.00276171
0.0027743
0.00278702
0.00279985
0.00281279
0.00282585
0.00283903
0.00285233
0.00286574
0.00287927
0.00289292
0.00290668
0.00292056
0.00293456
0.00294867
0.00296289
0.00297724
0.00299169
0.00300627
0.00302095
0.00303575
0.00305067
0.0030657
0.00308084
0.00309609
0.00311146
0.00312694
0.00314253
0.00315823
0.00317404
0.00318997
0.003206
0.00322214
0.00323839
0.00325475
0.00327122
0.00328779
0.00330447
0.00332126
0.00333815
0.00335515
0.00337225
0.00338946
0.00340677
0.00342418
0.00344169
0.0034593
0.00347702
0.00349483
0.00351274
0.00353075
0.00354886
0.00356707
0.00358537
0.00360376
0.00362225
0.00364084
0.00365952
0.00367829
0.00369715
0.0037161
0.00373514
0.00375427
0.00377348
0.00379279
0.00381218
0.00383165
0.00385122
0.00387086
0.00389059
0.0039104
0.00393029
0.00395026
0.0039703
0.00399043
0.00401064
0.00403092
0.00405127
0.0040717
0.00409221
0.00411279
0.00413343
0.00415415
0.00417494
0.0041958
0.00421673
0.00423772
0.00425878
0.0042799
0.00430109
0.00432234
0.00434365
0.00436502
0.00438645
0.00440794
0.00442949
0.0044511
0.00447276
0.00449447
0.00451624
0.00453807
0.00455994
0.00458186
0.00460383
0.00462585
0.00464792
0.00467004
0.00469219
0.0047144
0.00473664
0.00475893
0.00478125
0.00480362
0.00482603
0.00484847
0.00487094
0.00489346
0.004916
0.00493858
0.00496119
0.00498383
0.0050065
0.00502919
0.00505192
0.00507466
0.00509743
0.00512023
0.00514304
0.00516588
0.00518873
0.0052116
0.00523449
0.0052574
0.00528031
0.00530324
0.00532618
0.00534913
0.00537209
0.00539505
0.00541802
0.005441
0.00546398
0.00548695
0.00550993
0.00553291
0.00555588
0.00557884
0.0056018
0.00562476
0.0056477
0.00567063
0.00569355
0.00571645
0.00573934
0.00576221
0.00578506
0.00580789
0.00583069
0.00585347
0.00587622
0.00589895
0.00592164
0.0059443
0.00596693
0.00598951
0.00601206
0.00603457
0.00605704
0.00607945
0.00610183
0.00612415
0.00614641
0.00616863
0.00619078
0.00621288
0.00623491
0.00625688
0.00627878
0.00630061
0.00632237
0.00634404
0.00636564
0.00638716
0.00640859
0.00642992
0.00645117
0.00647232
0.00649336
0.0065143
0.00653514
0.00655585
0.00657646
0.00659693
0.00661729
0.00663751
0.00665759
0.00667753
0.00669732
0.00671695
0.00673643
0.00675573
0.00677486
0.00679381
0.00681257
0.00683113
0.00684948
0.00686762
0.00688553
0.0069032
0.00692062
0.00693778
0.00695467
0.00697127
0.00698756
0.00700354
0.00701917
0.00703445
0.00704936
0.00706386
0.00707794
0.00709156
0.00710471
0.00711734
0.00712942
0.0071409
0.00715176
0.00716193
0.00717136
0.00718
0.00718776
0.00719457
0.00720035
0.00720499
0.00720838
0.00721039
0.00721085
0.00720959
0.00720642
0.00720107
0.00719326
0.00718264
0.00716881
0.00715126
0.00712938
0.00710241
0.00706941
0.0070292
0.00698024
0.00692056
0.00684756
0.00675775
0.00664633
0.0065066
0.00632896
0.0060993
0.00579632
0.00538735
0.00482221
0.00402906
0.00293705
0.00161855
0.000536997
8.96483e-05
7.44805e-05
)
;

boundaryField
{
    top_wall
    {
        type            kLowReWallFunction;
        value           uniform 2.68988e-08;
    }
    inlet
    {
        type            cyclic;
    }
    bot_wall
    {
        type            kLowReWallFunction;
        value           uniform 2.68989e-08;
    }
    outlet
    {
        type            cyclic;
    }
    frontAndBack
    {
        type            empty;
    }
}


// ************************************************************************* //
