/*--------------------------------*- C++ -*----------------------------------*\
| =========                 |                                                 |
| \\      /  F ield         | OpenFOAM: The Open Source CFD Toolbox           |
|  \\    /   O peration     | Version:  2312                                  |
|   \\  /    A nd           | Website:  www.openfoam.com                      |
|    \\/     M anipulation  |                                                 |
\*---------------------------------------------------------------------------*/
FoamFile
{
    version     2.0;
    format      ascii;
    arch        "LSB;label=32;scalar=64";
    class       volVectorField;
    location    "100";
    object      U;
}
// * * * * * * * * * * * * * * * * * * * * * * * * * * * * * * * * * * * * * //

dimensions      [0 1 -1 0 0 0 0];

internalField   nonuniform List<vector> 
1000
(
(0.0510079 -1.40407e-17 0)
(0.15282 -3.16419e-17 0)
(0.254427 -3.06989e-17 0)
(0.355831 -2.83282e-17 0)
(0.45703 -2.82132e-17 0)
(0.558026 -2.86432e-17 0)
(0.658817 -2.88536e-17 0)
(0.759404 -2.88246e-17 0)
(0.859788 -2.84696e-17 0)
(0.959967 -2.81036e-17 0)
(1.05994 -2.8048e-17 0)
(1.15971 -2.8124e-17 0)
(1.25928 -2.84903e-17 0)
(1.35864 -2.89064e-17 0)
(1.4578 -2.89933e-17 0)
(1.55676 -2.91199e-17 0)
(1.65551 -2.92405e-17 0)
(1.75405 -2.92953e-17 0)
(1.8524 -2.93767e-17 0)
(1.95054 -2.94851e-17 0)
(2.04847 -2.95908e-17 0)
(2.1462 -2.96942e-17 0)
(2.24373 -2.97956e-17 0)
(2.34105 -2.98953e-17 0)
(2.43817 -2.99934e-17 0)
(2.53508 -3.00899e-17 0)
(2.63179 -3.01847e-17 0)
(2.7283 -3.02778e-17 0)
(2.8246 -3.03689e-17 0)
(2.9207 -3.04581e-17 0)
(3.01659 -3.05451e-17 0)
(3.11228 -3.06297e-17 0)
(3.20777 -3.07119e-17 0)
(3.30305 -3.07916e-17 0)
(3.39813 -3.08685e-17 0)
(3.493 -3.09428e-17 0)
(3.58767 -3.10142e-17 0)
(3.68214 -3.10828e-17 0)
(3.7764 -3.11485e-17 0)
(3.87046 -3.12112e-17 0)
(3.96431 -3.12711e-17 0)
(4.05796 -3.1328e-17 0)
(4.1514 -3.1382e-17 0)
(4.24465 -3.14331e-17 0)
(4.33768 -3.14813e-17 0)
(4.43052 -3.15266e-17 0)
(4.52314 -3.15691e-17 0)
(4.61557 -3.16088e-17 0)
(4.70779 -3.16458e-17 0)
(4.79981 -3.168e-17 0)
(4.89162 -3.17114e-17 0)
(4.98323 -3.17402e-17 0)
(5.07463 -3.17664e-17 0)
(5.16583 -3.179e-17 0)
(5.25683 -3.1811e-17 0)
(5.34762 -3.18294e-17 0)
(5.43821 -3.18454e-17 0)
(5.52859 -3.18589e-17 0)
(5.61877 -3.187e-17 0)
(5.70875 -3.18786e-17 0)
(5.79852 -3.18849e-17 0)
(5.88809 -3.18889e-17 0)
(5.97745 -3.18905e-17 0)
(6.06661 -3.18898e-17 0)
(6.15557 -3.18869e-17 0)
(6.24432 -3.18817e-17 0)
(6.33286 -3.18743e-17 0)
(6.42121 -3.18647e-17 0)
(6.50935 -3.1853e-17 0)
(6.59728 -3.18391e-17 0)
(6.68501 -3.18231e-17 0)
(6.77254 -3.1805e-17 0)
(6.85986 -3.17849e-17 0)
(6.94698 -3.17627e-17 0)
(7.03389 -3.17385e-17 0)
(7.1206 -3.17123e-17 0)
(7.20711 -3.16841e-17 0)
(7.29341 -3.1654e-17 0)
(7.37951 -3.16221e-17 0)
(7.4654 -3.15882e-17 0)
(7.55109 -3.15525e-17 0)
(7.63658 -3.1515e-17 0)
(7.72186 -3.14757e-17 0)
(7.80694 -3.14347e-17 0)
(7.89181 -3.1392e-17 0)
(7.97648 -3.13476e-17 0)
(8.06095 -3.13016e-17 0)
(8.14521 -3.12541e-17 0)
(8.22926 -3.1205e-17 0)
(8.31312 -3.11544e-17 0)
(8.39677 -3.11024e-17 0)
(8.48021 -3.1049e-17 0)
(8.56345 -3.09943e-17 0)
(8.64649 -3.09384e-17 0)
(8.72932 -3.08813e-17 0)
(8.81195 -3.08232e-17 0)
(8.89437 -3.0764e-17 0)
(8.97659 -3.0704e-17 0)
(9.05861 -3.06433e-17 0)
(9.14042 -3.0582e-17 0)
(9.22203 -3.05203e-17 0)
(9.30343 -3.04585e-17 0)
(9.38463 -3.03967e-17 0)
(9.46563 -3.03355e-17 0)
(9.54642 -3.0275e-17 0)
(9.627 -3.0216e-17 0)
(9.70739 -3.01589e-17 0)
(9.78756 -3.01044e-17 0)
(9.86754 -3.00535e-17 0)
(9.94731 -3.00071e-17 0)
(10.0269 -2.99667e-17 0)
(10.1062 -2.99335e-17 0)
(10.1854 -2.99096e-17 0)
(10.2644 -2.9897e-17 0)
(10.3431 -2.98981e-17 0)
(10.4216 -2.9916e-17 0)
(10.5 -2.99539e-17 0)
(10.5781 -3.00158e-17 0)
(10.6561 -3.01059e-17 0)
(10.7338 -3.0229e-17 0)
(10.8113 -3.0369e-17 0)
(10.8886 -3.05489e-17 0)
(10.9658 -3.07731e-17 0)
(11.0427 -3.10268e-17 0)
(11.1194 -3.13154e-17 0)
(11.1959 -3.16433e-17 0)
(11.2722 -3.20139e-17 0)
(11.3483 -3.24285e-17 0)
(11.4242 -3.28858e-17 0)
(11.4999 -3.33803e-17 0)
(11.5753 -3.3901e-17 0)
(11.6506 -3.44315e-17 0)
(11.7257 -3.49485e-17 0)
(11.8006 -3.54404e-17 0)
(11.8752 -3.58663e-17 0)
(11.9497 -3.61965e-17 0)
(12.024 -3.64179e-17 0)
(12.098 -3.65026e-17 0)
(12.1719 -3.64681e-17 0)
(12.2455 -3.59153e-17 0)
(12.3189 -3.29953e-17 0)
(12.3922 -3.00536e-17 0)
(12.4652 -2.94635e-17 0)
(12.5381 -2.93776e-17 0)
(12.6107 -2.94158e-17 0)
(12.6831 -2.95772e-17 0)
(12.7553 -2.98346e-17 0)
(12.8273 -3.01733e-17 0)
(12.8991 -3.05607e-17 0)
(12.9707 -3.0974e-17 0)
(13.0421 -3.13813e-17 0)
(13.1133 -3.17598e-17 0)
(13.1843 -3.20942e-17 0)
(13.2551 -3.23734e-17 0)
(13.3257 -3.25924e-17 0)
(13.3961 -3.27496e-17 0)
(13.4663 -3.28463e-17 0)
(13.5362 -3.28858e-17 0)
(13.606 -3.28718e-17 0)
(13.6756 -3.28086e-17 0)
(13.7449 -3.27005e-17 0)
(13.8141 -3.25511e-17 0)
(13.883 -3.23634e-17 0)
(13.9518 -3.21388e-17 0)
(14.0203 -3.18797e-17 0)
(14.0887 -3.15675e-17 0)
(14.1568 -3.12011e-17 0)
(14.2247 -3.07749e-17 0)
(14.2925 -3.0277e-17 0)
(14.36 -2.96444e-17 0)
(14.4273 -2.94356e-17 0)
(14.4944 -3.16996e-17 0)
(14.5613 -3.39715e-17 0)
(14.628 -3.37442e-17 0)
(14.6945 -3.30898e-17 0)
(14.7608 -3.25499e-17 0)
(14.8269 -3.20604e-17 0)
(14.8928 -3.16075e-17 0)
(14.9585 -3.11827e-17 0)
(15.024 -3.07807e-17 0)
(15.0893 -3.03984e-17 0)
(15.1543 -3.00346e-17 0)
(15.2192 -2.96885e-17 0)
(15.2839 -2.93607e-17 0)
(15.3483 -2.9052e-17 0)
(15.4126 -2.87638e-17 0)
(15.4766 -2.84985e-17 0)
(15.5405 -2.82591e-17 0)
(15.6041 -2.805e-17 0)
(15.6676 -2.78771e-17 0)
(15.7308 -2.77487e-17 0)
(15.7938 -2.76551e-17 0)
(15.8566 -2.76078e-17 0)
(15.9193 -2.76194e-17 0)
(15.9817 -2.77034e-17 0)
(16.0439 -2.7873e-17 0)
(16.1059 -2.81218e-17 0)
(16.1677 -2.84375e-17 0)
(16.2293 -2.88136e-17 0)
(16.2907 -2.91733e-17 0)
(16.3519 -2.95773e-17 0)
(16.4129 -2.99795e-17 0)
(16.4737 -3.10318e-17 0)
(16.5343 -3.33338e-17 0)
(16.5946 -3.57521e-17 0)
(16.6548 -3.69391e-17 0)
(16.7148 -3.7367e-17 0)
(16.7746 -3.7804e-17 0)
(16.8341 -3.83191e-17 0)
(16.8935 -3.89053e-17 0)
(16.9526 -3.94776e-17 0)
(17.0116 -3.99906e-17 0)
(17.0703 -4.04215e-17 0)
(17.1289 -4.07793e-17 0)
(17.1872 -4.10571e-17 0)
(17.2453 -4.12685e-17 0)
(17.3033 -4.14248e-17 0)
(17.361 -4.15379e-17 0)
(17.4185 -4.16194e-17 0)
(17.4758 -4.16601e-17 0)
(17.5329 -4.16691e-17 0)
(17.5898 -4.16534e-17 0)
(17.6465 -4.16182e-17 0)
(17.703 -4.15676e-17 0)
(17.7593 -4.15048e-17 0)
(17.8154 -4.14321e-17 0)
(17.8713 -4.13516e-17 0)
(17.927 -4.12647e-17 0)
(17.9825 -4.11725e-17 0)
(18.0377 -4.10762e-17 0)
(18.0928 -4.09765e-17 0)
(18.1477 -4.08741e-17 0)
(18.2023 -4.07697e-17 0)
(18.2568 -4.06636e-17 0)
(18.311 -4.05564e-17 0)
(18.3651 -4.04484e-17 0)
(18.4189 -4.03399e-17 0)
(18.4726 -4.02311e-17 0)
(18.526 -4.01224e-17 0)
(18.5792 -4.00137e-17 0)
(18.6323 -3.99054e-17 0)
(18.6851 -3.97975e-17 0)
(18.7377 -3.969e-17 0)
(18.7901 -3.95831e-17 0)
(18.8423 -3.94767e-17 0)
(18.8944 -3.93708e-17 0)
(18.9462 -3.92655e-17 0)
(18.9978 -3.91606e-17 0)
(19.0492 -3.90562e-17 0)
(19.1003 -3.89522e-17 0)
(19.1513 -3.88485e-17 0)
(19.2021 -3.87452e-17 0)
(19.2527 -3.8642e-17 0)
(19.3031 -3.8539e-17 0)
(19.3532 -3.8436e-17 0)
(19.4032 -3.83331e-17 0)
(19.453 -3.82301e-17 0)
(19.5025 -3.8127e-17 0)
(19.5519 -3.80237e-17 0)
(19.601 -3.79203e-17 0)
(19.65 -3.78165e-17 0)
(19.6987 -3.77125e-17 0)
(19.7473 -3.76081e-17 0)
(19.7956 -3.75034e-17 0)
(19.8437 -3.73982e-17 0)
(19.8916 -3.72927e-17 0)
(19.9394 -3.71867e-17 0)
(19.9869 -3.70803e-17 0)
(20.0342 -3.69735e-17 0)
(20.0813 -3.68662e-17 0)
(20.1282 -3.67585e-17 0)
(20.1749 -3.66503e-17 0)
(20.2214 -3.65418e-17 0)
(20.2677 -3.64329e-17 0)
(20.3138 -3.63235e-17 0)
(20.3597 -3.62139e-17 0)
(20.4054 -3.61038e-17 0)
(20.4508 -3.59935e-17 0)
(20.4961 -3.58829e-17 0)
(20.5412 -3.57721e-17 0)
(20.586 -3.5661e-17 0)
(20.6307 -3.55497e-17 0)
(20.6752 -3.54383e-17 0)
(20.7194 -3.53267e-17 0)
(20.7635 -3.52151e-17 0)
(20.8073 -3.51033e-17 0)
(20.8509 -3.49916e-17 0)
(20.8944 -3.48798e-17 0)
(20.9376 -3.47681e-17 0)
(20.9806 -3.46564e-17 0)
(21.0235 -3.45448e-17 0)
(21.0661 -3.44333e-17 0)
(21.1085 -3.43219e-17 0)
(21.1507 -3.42107e-17 0)
(21.1927 -3.40997e-17 0)
(21.2345 -3.39889e-17 0)
(21.2761 -3.38784e-17 0)
(21.3175 -3.37681e-17 0)
(21.3587 -3.36581e-17 0)
(21.3997 -3.35483e-17 0)
(21.4405 -3.34389e-17 0)
(21.481 -3.33298e-17 0)
(21.5214 -3.32211e-17 0)
(21.5616 -3.31127e-17 0)
(21.6016 -3.30046e-17 0)
(21.6413 -3.2897e-17 0)
(21.6809 -3.27897e-17 0)
(21.7202 -3.26829e-17 0)
(21.7594 -3.25764e-17 0)
(21.7983 -3.24703e-17 0)
(21.8371 -3.23647e-17 0)
(21.8756 -3.22594e-17 0)
(21.9139 -3.21546e-17 0)
(21.9521 -3.20502e-17 0)
(21.99 -3.19463e-17 0)
(22.0277 -3.18427e-17 0)
(22.0652 -3.17396e-17 0)
(22.1026 -3.16369e-17 0)
(22.1397 -3.15346e-17 0)
(22.1766 -3.14328e-17 0)
(22.2133 -3.13313e-17 0)
(22.2498 -3.12303e-17 0)
(22.2861 -3.11297e-17 0)
(22.3222 -3.10294e-17 0)
(22.358 -3.09296e-17 0)
(22.3937 -3.08302e-17 0)
(22.4292 -3.07312e-17 0)
(22.4645 -3.06325e-17 0)
(22.4995 -3.05342e-17 0)
(22.5344 -3.04363e-17 0)
(22.5691 -3.03388e-17 0)
(22.6035 -3.02416e-17 0)
(22.6378 -3.01448e-17 0)
(22.6718 -3.00484e-17 0)
(22.7057 -2.99522e-17 0)
(22.7393 -2.98564e-17 0)
(22.7728 -2.9761e-17 0)
(22.806 -2.96658e-17 0)
(22.839 -2.9571e-17 0)
(22.8718 -2.94765e-17 0)
(22.9045 -2.93823e-17 0)
(22.9369 -2.92884e-17 0)
(22.9691 -2.91947e-17 0)
(23.0011 -2.91014e-17 0)
(23.0329 -2.90083e-17 0)
(23.0645 -2.89155e-17 0)
(23.0959 -2.8823e-17 0)
(23.1271 -2.87307e-17 0)
(23.1581 -2.86386e-17 0)
(23.1889 -2.85469e-17 0)
(23.2195 -2.84553e-17 0)
(23.2498 -2.8364e-17 0)
(23.28 -2.82729e-17 0)
(23.31 -2.81821e-17 0)
(23.3398 -2.80914e-17 0)
(23.3693 -2.8001e-17 0)
(23.3987 -2.79108e-17 0)
(23.4278 -2.78208e-17 0)
(23.4568 -2.7731e-17 0)
(23.4855 -2.76414e-17 0)
(23.5141 -2.75519e-17 0)
(23.5424 -2.74627e-17 0)
(23.5705 -2.73737e-17 0)
(23.5985 -2.72848e-17 0)
(23.6262 -2.71961e-17 0)
(23.6537 -2.71076e-17 0)
(23.681 -2.70192e-17 0)
(23.7082 -2.69311e-17 0)
(23.7351 -2.6843e-17 0)
(23.7618 -2.67552e-17 0)
(23.7883 -2.66675e-17 0)
(23.8146 -2.65799e-17 0)
(23.8407 -2.64925e-17 0)
(23.8666 -2.64053e-17 0)
(23.8922 -2.63182e-17 0)
(23.9177 -2.62313e-17 0)
(23.943 -2.61444e-17 0)
(23.9681 -2.60578e-17 0)
(23.9929 -2.59713e-17 0)
(24.0176 -2.58849e-17 0)
(24.0421 -2.57986e-17 0)
(24.0663 -2.57125e-17 0)
(24.0904 -2.56265e-17 0)
(24.1142 -2.55407e-17 0)
(24.1379 -2.5455e-17 0)
(24.1613 -2.53694e-17 0)
(24.1846 -2.52839e-17 0)
(24.2076 -2.51986e-17 0)
(24.2304 -2.51134e-17 0)
(24.2531 -2.50283e-17 0)
(24.2755 -2.49433e-17 0)
(24.2977 -2.48585e-17 0)
(24.3197 -2.47738e-17 0)
(24.3415 -2.46892e-17 0)
(24.3632 -2.46048e-17 0)
(24.3846 -2.45205e-17 0)
(24.4058 -2.44362e-17 0)
(24.4268 -2.43522e-17 0)
(24.4475 -2.42682e-17 0)
(24.4681 -2.41843e-17 0)
(24.4885 -2.41006e-17 0)
(24.5087 -2.4017e-17 0)
(24.5287 -2.39335e-17 0)
(24.5485 -2.38502e-17 0)
(24.568 -2.3767e-17 0)
(24.5874 -2.36839e-17 0)
(24.6065 -2.36009e-17 0)
(24.6255 -2.3518e-17 0)
(24.6443 -2.34353e-17 0)
(24.6628 -2.33526e-17 0)
(24.6812 -2.32701e-17 0)
(24.6993 -2.31878e-17 0)
(24.7172 -2.31055e-17 0)
(24.735 -2.30234e-17 0)
(24.7525 -2.29414e-17 0)
(24.7698 -2.28595e-17 0)
(24.787 -2.27778e-17 0)
(24.8039 -2.26962e-17 0)
(24.8206 -2.26147e-17 0)
(24.8371 -2.25333e-17 0)
(24.8534 -2.24521e-17 0)
(24.8695 -2.2371e-17 0)
(24.8854 -2.229e-17 0)
(24.9011 -2.22092e-17 0)
(24.9166 -2.21285e-17 0)
(24.9319 -2.20479e-17 0)
(24.947 -2.19674e-17 0)
(24.9618 -2.18871e-17 0)
(24.9765 -2.18069e-17 0)
(24.991 -2.17269e-17 0)
(25.0053 -2.1647e-17 0)
(25.0193 -2.15672e-17 0)
(25.0332 -2.14876e-17 0)
(25.0468 -2.14081e-17 0)
(25.0603 -2.13287e-17 0)
(25.0735 -2.12495e-17 0)
(25.0866 -2.11704e-17 0)
(25.0994 -2.10914e-17 0)
(25.1121 -2.10126e-17 0)
(25.1245 -2.09339e-17 0)
(25.1367 -2.08554e-17 0)
(25.1488 -2.0777e-17 0)
(25.1606 -2.06988e-17 0)
(25.1722 -2.06207e-17 0)
(25.1836 -2.05427e-17 0)
(25.1948 -2.04649e-17 0)
(25.2058 -2.03873e-17 0)
(25.2166 -2.03097e-17 0)
(25.2272 -2.02324e-17 0)
(25.2376 -2.01551e-17 0)
(25.2478 -2.00781e-17 0)
(25.2578 -2.00011e-17 0)
(25.2676 -1.99244e-17 0)
(25.2772 -1.98477e-17 0)
(25.2865 -1.97712e-17 0)
(25.2957 -1.96949e-17 0)
(25.3047 -1.96187e-17 0)
(25.3135 -1.95427e-17 0)
(25.322 -1.94668e-17 0)
(25.3304 -1.93911e-17 0)
(25.3385 -1.93156e-17 0)
(25.3465 -1.92401e-17 0)
(25.3542 -1.91649e-17 0)
(25.3618 -1.90898e-17 0)
(25.3691 -1.90148e-17 0)
(25.3762 -1.894e-17 0)
(25.3832 -1.88654e-17 0)
(25.3899 -1.87909e-17 0)
(25.3964 -1.87166e-17 0)
(25.4027 -1.86425e-17 0)
(25.4088 -1.85685e-17 0)
(25.4148 -1.84946e-17 0)
(25.4205 -1.84209e-17 0)
(25.426 -1.83474e-17 0)
(25.4313 -1.8274e-17 0)
(25.4364 -1.82008e-17 0)
(25.4413 -1.81278e-17 0)
(25.4459 -1.80549e-17 0)
(25.4504 -1.79822e-17 0)
(25.4547 -1.79096e-17 0)
(25.4588 -1.78372e-17 0)
(25.4627 -1.7765e-17 0)
(25.4663 -1.76929e-17 0)
(25.4698 -1.7621e-17 0)
(25.473 -1.75493e-17 0)
(25.4761 -1.74777e-17 0)
(25.479 -1.74062e-17 0)
(25.4816 -1.7335e-17 0)
(25.4841 -1.72639e-17 0)
(25.4863 -1.7193e-17 0)
(25.4883 -1.71222e-17 0)
(25.4902 -1.70516e-17 0)
(25.4918 -1.69812e-17 0)
(25.4932 -1.69109e-17 0)
(25.4945 -1.68408e-17 0)
(25.4955 -1.67709e-17 0)
(25.4963 -1.67011e-17 0)
(25.4969 -1.66315e-17 0)
(25.4973 -1.6562e-17 0)
(25.4975 -1.64927e-17 0)
(25.4975 -1.64236e-17 0)
(25.4973 -1.63545e-17 0)
(25.4969 -1.62856e-17 0)
(25.4963 -1.62168e-17 0)
(25.4955 -1.61482e-17 0)
(25.4945 -1.60798e-17 0)
(25.4932 -1.60115e-17 0)
(25.4918 -1.59434e-17 0)
(25.4902 -1.58755e-17 0)
(25.4883 -1.58077e-17 0)
(25.4863 -1.57401e-17 0)
(25.4841 -1.56727e-17 0)
(25.4816 -1.56054e-17 0)
(25.479 -1.55383e-17 0)
(25.4761 -1.54714e-17 0)
(25.473 -1.54047e-17 0)
(25.4698 -1.53381e-17 0)
(25.4663 -1.52717e-17 0)
(25.4627 -1.52054e-17 0)
(25.4588 -1.51393e-17 0)
(25.4547 -1.50734e-17 0)
(25.4504 -1.50077e-17 0)
(25.4459 -1.49421e-17 0)
(25.4413 -1.48767e-17 0)
(25.4364 -1.48115e-17 0)
(25.4313 -1.47464e-17 0)
(25.426 -1.46815e-17 0)
(25.4205 -1.46168e-17 0)
(25.4148 -1.45522e-17 0)
(25.4088 -1.44878e-17 0)
(25.4027 -1.44236e-17 0)
(25.3964 -1.43595e-17 0)
(25.3899 -1.42957e-17 0)
(25.3832 -1.42319e-17 0)
(25.3762 -1.41684e-17 0)
(25.3691 -1.4105e-17 0)
(25.3618 -1.40418e-17 0)
(25.3542 -1.39788e-17 0)
(25.3465 -1.39159e-17 0)
(25.3385 -1.38532e-17 0)
(25.3304 -1.37907e-17 0)
(25.322 -1.37283e-17 0)
(25.3135 -1.36661e-17 0)
(25.3047 -1.36041e-17 0)
(25.2957 -1.35422e-17 0)
(25.2865 -1.34805e-17 0)
(25.2772 -1.3419e-17 0)
(25.2676 -1.33576e-17 0)
(25.2578 -1.32964e-17 0)
(25.2478 -1.32354e-17 0)
(25.2376 -1.31746e-17 0)
(25.2272 -1.31139e-17 0)
(25.2166 -1.30534e-17 0)
(25.2058 -1.2993e-17 0)
(25.1948 -1.29329e-17 0)
(25.1836 -1.28729e-17 0)
(25.1722 -1.2813e-17 0)
(25.1606 -1.27533e-17 0)
(25.1488 -1.26938e-17 0)
(25.1367 -1.26345e-17 0)
(25.1245 -1.25753e-17 0)
(25.1121 -1.25163e-17 0)
(25.0994 -1.24575e-17 0)
(25.0866 -1.23988e-17 0)
(25.0735 -1.23403e-17 0)
(25.0603 -1.2282e-17 0)
(25.0468 -1.22238e-17 0)
(25.0332 -1.21658e-17 0)
(25.0193 -1.2108e-17 0)
(25.0053 -1.20503e-17 0)
(24.991 -1.19928e-17 0)
(24.9765 -1.19355e-17 0)
(24.9618 -1.18783e-17 0)
(24.947 -1.18213e-17 0)
(24.9319 -1.17645e-17 0)
(24.9166 -1.17078e-17 0)
(24.9011 -1.16513e-17 0)
(24.8854 -1.1595e-17 0)
(24.8695 -1.15388e-17 0)
(24.8534 -1.14828e-17 0)
(24.8371 -1.1427e-17 0)
(24.8206 -1.13713e-17 0)
(24.8039 -1.13158e-17 0)
(24.787 -1.12604e-17 0)
(24.7698 -1.12053e-17 0)
(24.7525 -1.11503e-17 0)
(24.735 -1.10954e-17 0)
(24.7172 -1.10407e-17 0)
(24.6993 -1.09862e-17 0)
(24.6812 -1.09318e-17 0)
(24.6628 -1.08777e-17 0)
(24.6443 -1.08236e-17 0)
(24.6255 -1.07698e-17 0)
(24.6065 -1.07161e-17 0)
(24.5874 -1.06625e-17 0)
(24.568 -1.06092e-17 0)
(24.5485 -1.0556e-17 0)
(24.5287 -1.05029e-17 0)
(24.5087 -1.045e-17 0)
(24.4885 -1.03973e-17 0)
(24.4681 -1.03448e-17 0)
(24.4475 -1.02924e-17 0)
(24.4268 -1.02401e-17 0)
(24.4058 -1.01881e-17 0)
(24.3846 -1.01362e-17 0)
(24.3632 -1.00844e-17 0)
(24.3415 -1.00328e-17 0)
(24.3197 -9.98141e-18 0)
(24.2977 -9.93015e-18 0)
(24.2755 -9.87905e-18 0)
(24.2531 -9.82812e-18 0)
(24.2304 -9.77734e-18 0)
(24.2076 -9.72673e-18 0)
(24.1846 -9.67628e-18 0)
(24.1613 -9.62599e-18 0)
(24.1379 -9.57586e-18 0)
(24.1142 -9.52589e-18 0)
(24.0904 -9.47607e-18 0)
(24.0663 -9.42642e-18 0)
(24.0421 -9.37693e-18 0)
(24.0176 -9.3276e-18 0)
(23.9929 -9.27843e-18 0)
(23.9681 -9.22942e-18 0)
(23.943 -9.18056e-18 0)
(23.9177 -9.13187e-18 0)
(23.8922 -9.08334e-18 0)
(23.8666 -9.03496e-18 0)
(23.8407 -8.98674e-18 0)
(23.8146 -8.93868e-18 0)
(23.7883 -8.89078e-18 0)
(23.7618 -8.84304e-18 0)
(23.7351 -8.79545e-18 0)
(23.7082 -8.74802e-18 0)
(23.681 -8.70075e-18 0)
(23.6537 -8.65364e-18 0)
(23.6262 -8.60668e-18 0)
(23.5985 -8.55988e-18 0)
(23.5705 -8.51324e-18 0)
(23.5424 -8.46675e-18 0)
(23.5141 -8.42042e-18 0)
(23.4855 -8.37424e-18 0)
(23.4568 -8.32823e-18 0)
(23.4278 -8.28236e-18 0)
(23.3987 -8.23666e-18 0)
(23.3693 -8.1911e-18 0)
(23.3398 -8.14571e-18 0)
(23.31 -8.10046e-18 0)
(23.28 -8.05538e-18 0)
(23.2498 -8.01044e-18 0)
(23.2195 -7.96567e-18 0)
(23.1889 -7.92104e-18 0)
(23.1581 -7.87657e-18 0)
(23.1271 -7.83225e-18 0)
(23.0959 -7.78809e-18 0)
(23.0645 -7.74408e-18 0)
(23.0329 -7.70022e-18 0)
(23.0011 -7.65652e-18 0)
(22.9691 -7.61297e-18 0)
(22.9369 -7.56957e-18 0)
(22.9045 -7.52632e-18 0)
(22.8718 -7.48322e-18 0)
(22.839 -7.44028e-18 0)
(22.806 -7.39749e-18 0)
(22.7728 -7.35485e-18 0)
(22.7393 -7.31236e-18 0)
(22.7057 -7.27002e-18 0)
(22.6718 -7.22783e-18 0)
(22.6378 -7.1858e-18 0)
(22.6035 -7.14391e-18 0)
(22.5691 -7.10217e-18 0)
(22.5344 -7.06059e-18 0)
(22.4995 -7.01915e-18 0)
(22.4645 -6.97786e-18 0)
(22.4292 -6.93672e-18 0)
(22.3937 -6.89573e-18 0)
(22.358 -6.85489e-18 0)
(22.3222 -6.8142e-18 0)
(22.2861 -6.77366e-18 0)
(22.2498 -6.73326e-18 0)
(22.2133 -6.69301e-18 0)
(22.1766 -6.65291e-18 0)
(22.1397 -6.61296e-18 0)
(22.1026 -6.57315e-18 0)
(22.0652 -6.53349e-18 0)
(22.0277 -6.49398e-18 0)
(21.99 -6.45461e-18 0)
(21.9521 -6.41539e-18 0)
(21.9139 -6.37632e-18 0)
(21.8756 -6.33739e-18 0)
(21.8371 -6.29861e-18 0)
(21.7983 -6.25997e-18 0)
(21.7594 -6.22148e-18 0)
(21.7202 -6.18313e-18 0)
(21.6809 -6.14493e-18 0)
(21.6413 -6.10687e-18 0)
(21.6016 -6.06895e-18 0)
(21.5616 -6.03118e-18 0)
(21.5214 -5.99355e-18 0)
(21.481 -5.95607e-18 0)
(21.4405 -5.91873e-18 0)
(21.3997 -5.88153e-18 0)
(21.3587 -5.84447e-18 0)
(21.3175 -5.80756e-18 0)
(21.2761 -5.77078e-18 0)
(21.2345 -5.73415e-18 0)
(21.1927 -5.69767e-18 0)
(21.1507 -5.66132e-18 0)
(21.1085 -5.62511e-18 0)
(21.0661 -5.58905e-18 0)
(21.0235 -5.55312e-18 0)
(20.9806 -5.51734e-18 0)
(20.9376 -5.48169e-18 0)
(20.8944 -5.44619e-18 0)
(20.8509 -5.41082e-18 0)
(20.8073 -5.3756e-18 0)
(20.7635 -5.34051e-18 0)
(20.7194 -5.30556e-18 0)
(20.6752 -5.27075e-18 0)
(20.6307 -5.23608e-18 0)
(20.586 -5.20155e-18 0)
(20.5412 -5.16715e-18 0)
(20.4961 -5.1329e-18 0)
(20.4508 -5.09878e-18 0)
(20.4054 -5.06479e-18 0)
(20.3597 -5.03094e-18 0)
(20.3138 -4.99723e-18 0)
(20.2677 -4.96366e-18 0)
(20.2214 -4.93022e-18 0)
(20.1749 -4.89692e-18 0)
(20.1282 -4.86375e-18 0)
(20.0813 -4.83072e-18 0)
(20.0342 -4.79782e-18 0)
(19.9869 -4.76506e-18 0)
(19.9394 -4.73243e-18 0)
(19.8916 -4.69994e-18 0)
(19.8437 -4.66758e-18 0)
(19.7956 -4.63535e-18 0)
(19.7473 -4.60326e-18 0)
(19.6987 -4.5713e-18 0)
(19.65 -4.53947e-18 0)
(19.601 -4.50778e-18 0)
(19.5519 -4.47622e-18 0)
(19.5025 -4.44479e-18 0)
(19.453 -4.41349e-18 0)
(19.4032 -4.38232e-18 0)
(19.3532 -4.35129e-18 0)
(19.3031 -4.32038e-18 0)
(19.2527 -4.28961e-18 0)
(19.2021 -4.25896e-18 0)
(19.1513 -4.22845e-18 0)
(19.1003 -4.19807e-18 0)
(19.0492 -4.16781e-18 0)
(18.9978 -4.13769e-18 0)
(18.9462 -4.10769e-18 0)
(18.8944 -4.07782e-18 0)
(18.8423 -4.04809e-18 0)
(18.7901 -4.01848e-18 0)
(18.7377 -3.98899e-18 0)
(18.6851 -3.95964e-18 0)
(18.6323 -3.93041e-18 0)
(18.5792 -3.90131e-18 0)
(18.526 -3.87234e-18 0)
(18.4726 -3.84349e-18 0)
(18.4189 -3.81478e-18 0)
(18.3651 -3.78618e-18 0)
(18.311 -3.75771e-18 0)
(18.2568 -3.72937e-18 0)
(18.2023 -3.70116e-18 0)
(18.1477 -3.67306e-18 0)
(18.0928 -3.6451e-18 0)
(18.0377 -3.61725e-18 0)
(17.9825 -3.58954e-18 0)
(17.927 -3.56194e-18 0)
(17.8713 -3.53447e-18 0)
(17.8154 -3.50713e-18 0)
(17.7593 -3.4799e-18 0)
(17.703 -3.4528e-18 0)
(17.6465 -3.42582e-18 0)
(17.5898 -3.39897e-18 0)
(17.5329 -3.37223e-18 0)
(17.4758 -3.34562e-18 0)
(17.4185 -3.31913e-18 0)
(17.361 -3.29276e-18 0)
(17.3033 -3.26651e-18 0)
(17.2453 -3.24039e-18 0)
(17.1872 -3.21438e-18 0)
(17.1289 -3.18849e-18 0)
(17.0703 -3.16272e-18 0)
(17.0116 -3.13708e-18 0)
(16.9526 -3.11155e-18 0)
(16.8935 -3.08614e-18 0)
(16.8341 -3.06085e-18 0)
(16.7746 -3.03568e-18 0)
(16.7148 -3.01063e-18 0)
(16.6548 -2.98569e-18 0)
(16.5946 -2.96087e-18 0)
(16.5343 -2.93617e-18 0)
(16.4737 -2.91159e-18 0)
(16.4129 -2.88713e-18 0)
(16.3519 -2.86278e-18 0)
(16.2907 -2.83854e-18 0)
(16.2293 -2.81443e-18 0)
(16.1677 -2.79043e-18 0)
(16.1059 -2.76654e-18 0)
(16.0439 -2.74277e-18 0)
(15.9817 -2.71912e-18 0)
(15.9193 -2.69558e-18 0)
(15.8566 -2.67215e-18 0)
(15.7938 -2.64884e-18 0)
(15.7308 -2.62565e-18 0)
(15.6676 -2.60256e-18 0)
(15.6041 -2.57959e-18 0)
(15.5405 -2.55674e-18 0)
(15.4766 -2.534e-18 0)
(15.4126 -2.51136e-18 0)
(15.3483 -2.48885e-18 0)
(15.2839 -2.46644e-18 0)
(15.2192 -2.44415e-18 0)
(15.1543 -2.42196e-18 0)
(15.0893 -2.39989e-18 0)
(15.024 -2.37793e-18 0)
(14.9585 -2.35608e-18 0)
(14.8928 -2.33434e-18 0)
(14.8269 -2.31272e-18 0)
(14.7608 -2.2912e-18 0)
(14.6945 -2.26979e-18 0)
(14.628 -2.24849e-18 0)
(14.5613 -2.2273e-18 0)
(14.4944 -2.20622e-18 0)
(14.4273 -2.18525e-18 0)
(14.36 -2.16438e-18 0)
(14.2925 -2.14363e-18 0)
(14.2247 -2.12298e-18 0)
(14.1568 -2.10244e-18 0)
(14.0887 -2.08201e-18 0)
(14.0203 -2.06168e-18 0)
(13.9518 -2.04146e-18 0)
(13.883 -2.02135e-18 0)
(13.8141 -2.00135e-18 0)
(13.7449 -1.98145e-18 0)
(13.6756 -1.96165e-18 0)
(13.606 -1.94196e-18 0)
(13.5362 -1.92238e-18 0)
(13.4663 -1.9029e-18 0)
(13.3961 -1.88353e-18 0)
(13.3257 -1.86426e-18 0)
(13.2551 -1.8451e-18 0)
(13.1843 -1.82604e-18 0)
(13.1133 -1.80708e-18 0)
(13.0421 -1.78823e-18 0)
(12.9707 -1.76948e-18 0)
(12.8991 -1.75083e-18 0)
(12.8273 -1.73228e-18 0)
(12.7553 -1.71384e-18 0)
(12.6831 -1.6955e-18 0)
(12.6107 -1.67726e-18 0)
(12.5381 -1.65913e-18 0)
(12.4652 -1.64109e-18 0)
(12.3922 -1.62316e-18 0)
(12.3189 -1.60532e-18 0)
(12.2455 -1.58759e-18 0)
(12.1719 -1.56996e-18 0)
(12.098 -1.55242e-18 0)
(12.024 -1.53499e-18 0)
(11.9497 -1.51766e-18 0)
(11.8752 -1.50042e-18 0)
(11.8006 -1.48328e-18 0)
(11.7257 -1.46625e-18 0)
(11.6506 -1.44931e-18 0)
(11.5753 -1.43246e-18 0)
(11.4999 -1.41572e-18 0)
(11.4242 -1.39907e-18 0)
(11.3483 -1.38252e-18 0)
(11.2722 -1.36607e-18 0)
(11.1959 -1.34971e-18 0)
(11.1194 -1.33345e-18 0)
(11.0427 -1.31729e-18 0)
(10.9658 -1.30122e-18 0)
(10.8886 -1.28525e-18 0)
(10.8113 -1.26937e-18 0)
(10.7338 -1.25358e-18 0)
(10.6561 -1.23789e-18 0)
(10.5781 -1.2223e-18 0)
(10.5 -1.20679e-18 0)
(10.4216 -1.19139e-18 0)
(10.3431 -1.17607e-18 0)
(10.2644 -1.16085e-18 0)
(10.1854 -1.14572e-18 0)
(10.1062 -1.13068e-18 0)
(10.0269 -1.11574e-18 0)
(9.94731 -1.10088e-18 0)
(9.86754 -1.08612e-18 0)
(9.78756 -1.07145e-18 0)
(9.70739 -1.05687e-18 0)
(9.627 -1.04238e-18 0)
(9.54642 -1.02798e-18 0)
(9.46562 -1.01367e-18 0)
(9.38463 -9.99447e-19 0)
(9.30343 -9.85317e-19 0)
(9.22203 -9.71275e-19 0)
(9.14042 -9.57323e-19 0)
(9.05861 -9.43459e-19 0)
(8.97659 -9.29684e-19 0)
(8.89437 -9.15997e-19 0)
(8.81195 -9.02398e-19 0)
(8.72932 -8.88887e-19 0)
(8.64649 -8.75464e-19 0)
(8.56345 -8.62128e-19 0)
(8.48021 -8.48879e-19 0)
(8.39677 -8.35718e-19 0)
(8.31312 -8.22644e-19 0)
(8.22926 -8.09656e-19 0)
(8.14521 -7.96756e-19 0)
(8.06095 -7.83942e-19 0)
(7.97648 -7.71215e-19 0)
(7.89181 -7.58575e-19 0)
(7.80694 -7.46021e-19 0)
(7.72186 -7.33554e-19 0)
(7.63658 -7.21174e-19 0)
(7.55109 -7.0888e-19 0)
(7.4654 -6.96672e-19 0)
(7.37951 -6.84552e-19 0)
(7.29341 -6.72519e-19 0)
(7.20711 -6.60572e-19 0)
(7.1206 -6.48713e-19 0)
(7.03389 -6.3694e-19 0)
(6.94698 -6.25256e-19 0)
(6.85986 -6.13659e-19 0)
(6.77254 -6.02149e-19 0)
(6.68501 -5.90728e-19 0)
(6.59728 -5.79395e-19 0)
(6.50935 -5.68151e-19 0)
(6.42121 -5.56996e-19 0)
(6.33286 -5.4593e-19 0)
(6.24432 -5.34953e-19 0)
(6.15557 -5.24066e-19 0)
(6.06661 -5.13269e-19 0)
(5.97745 -5.02562e-19 0)
(5.88809 -4.91946e-19 0)
(5.79852 -4.81422e-19 0)
(5.70875 -4.70988e-19 0)
(5.61877 -4.60647e-19 0)
(5.52859 -4.50397e-19 0)
(5.43821 -4.40239e-19 0)
(5.34762 -4.30174e-19 0)
(5.25683 -4.20202e-19 0)
(5.16583 -4.10323e-19 0)
(5.07463 -4.00538e-19 0)
(4.98323 -3.90845e-19 0)
(4.89162 -3.81246e-19 0)
(4.79981 -3.71741e-19 0)
(4.70779 -3.6233e-19 0)
(4.61557 -3.53012e-19 0)
(4.52314 -3.43788e-19 0)
(4.43052 -3.34658e-19 0)
(4.33768 -3.25621e-19 0)
(4.24465 -3.16677e-19 0)
(4.1514 -3.07826e-19 0)
(4.05796 -2.99068e-19 0)
(3.96431 -2.90402e-19 0)
(3.87046 -2.81828e-19 0)
(3.7764 -2.73345e-19 0)
(3.68214 -2.64952e-19 0)
(3.58767 -2.56649e-19 0)
(3.493 -2.48434e-19 0)
(3.39813 -2.40307e-19 0)
(3.30305 -2.32267e-19 0)
(3.20777 -2.24313e-19 0)
(3.11228 -2.16443e-19 0)
(3.01659 -2.08656e-19 0)
(2.9207 -2.00951e-19 0)
(2.8246 -1.93326e-19 0)
(2.7283 -1.85779e-19 0)
(2.63179 -1.78309e-19 0)
(2.53508 -1.70914e-19 0)
(2.43817 -1.63592e-19 0)
(2.34105 -1.5634e-19 0)
(2.24373 -1.49158e-19 0)
(2.1462 -1.42041e-19 0)
(2.04847 -1.34989e-19 0)
(1.95054 -1.27999e-19 0)
(1.8524 -1.21068e-19 0)
(1.75405 -1.14193e-19 0)
(1.65551 -1.07373e-19 0)
(1.55676 -1.00603e-19 0)
(1.4578 -9.38824e-20 0)
(1.35864 -8.72071e-20 0)
(1.25928 -8.05744e-20 0)
(1.15971 -7.39814e-20 0)
(1.05994 -6.7425e-20 0)
(0.959967 -6.0902e-20 0)
(0.859788 -5.44095e-20 0)
(0.759404 -4.79442e-20 0)
(0.658817 -4.1503e-20 0)
(0.558026 -3.50826e-20 0)
(0.45703 -2.86799e-20 0)
(0.355831 -2.22915e-20 0)
(0.254427 -1.59144e-20 0)
(0.15282 -9.54532e-21 0)
(0.0510079 -3.18098e-21 0)
)
;

boundaryField
{
    top_wall
    {
        type            noSlip;
    }
    inlet
    {
        type            cyclic;
    }
    bot_wall
    {
        type            noSlip;
    }
    outlet
    {
        type            cyclic;
    }
    frontAndBack
    {
        type            empty;
    }
}


// ************************************************************************* //
