/*--------------------------------*- C++ -*----------------------------------*\
| =========                 |                                                 |
| \\      /  F ield         | OpenFOAM: The Open Source CFD Toolbox           |
|  \\    /   O peration     | Version:  2312                                  |
|   \\  /    A nd           | Website:  www.openfoam.com                      |
|    \\/     M anipulation  |                                                 |
\*---------------------------------------------------------------------------*/
FoamFile
{
    version     2.0;
    format      ascii;
    arch        "LSB;label=32;scalar=64";
    class       volScalarField;
    location    "21.65";
    object      k;
}
// * * * * * * * * * * * * * * * * * * * * * * * * * * * * * * * * * * * * * //

dimensions      [0 2 -2 0 0 0 0];

internalField   nonuniform List<scalar> 
1000
(
0.313578
0.32474
0.391813
0.446496
0.486011
0.515005
0.53694
0.553998
0.567565
0.578553
0.587581
0.595084
0.601377
0.606695
0.611214
0.61507
0.618371
0.621203
0.623632
0.625716
0.627501
0.629024
0.630319
0.631411
0.632324
0.633078
0.63369
0.634175
0.634544
0.63481
0.634983
0.63507
0.635079
0.635018
0.634892
0.634707
0.634468
0.634178
0.633843
0.633465
0.633047
0.632593
0.632105
0.631586
0.631038
0.630462
0.629861
0.629237
0.62859
0.627923
0.627236
0.626531
0.62581
0.625072
0.624319
0.623553
0.622773
0.62198
0.621176
0.620361
0.619535
0.6187
0.617855
0.617001
0.616139
0.615269
0.614391
0.613506
0.612615
0.611717
0.610813
0.609903
0.608988
0.608068
0.607142
0.606212
0.605277
0.604338
0.603395
0.602448
0.601497
0.600542
0.599584
0.598623
0.597658
0.59669
0.59572
0.594747
0.593771
0.592792
0.591811
0.590827
0.589841
0.588853
0.587863
0.586871
0.585876
0.58488
0.583881
0.582881
0.581879
0.580876
0.57987
0.578863
0.577854
0.576844
0.575832
0.574819
0.573804
0.572788
0.57177
0.570751
0.569731
0.568709
0.567686
0.566662
0.565637
0.56461
0.563582
0.562552
0.561522
0.56049
0.559457
0.558423
0.557388
0.556351
0.555314
0.554275
0.553235
0.552194
0.551152
0.550109
0.549065
0.548019
0.546973
0.545925
0.544876
0.543827
0.542776
0.541723
0.54067
0.539616
0.538561
0.537504
0.536447
0.535388
0.534328
0.533267
0.532205
0.531142
0.530078
0.529012
0.527946
0.526878
0.52581
0.52474
0.523669
0.522596
0.521523
0.520449
0.519373
0.518296
0.517218
0.516139
0.515059
0.513978
0.512895
0.511811
0.510726
0.50964
0.508553
0.507464
0.506374
0.505283
0.504191
0.503098
0.502003
0.500907
0.49981
0.498712
0.497613
0.496512
0.49541
0.494307
0.493202
0.492096
0.490989
0.489881
0.488772
0.487661
0.486549
0.485435
0.484321
0.483205
0.482088
0.48097
0.47985
0.478729
0.477607
0.476483
0.475358
0.474232
0.473105
0.471976
0.470846
0.469715
0.468582
0.467448
0.466313
0.465177
0.464039
0.4629
0.46176
0.460618
0.459475
0.458331
0.457185
0.456039
0.45489
0.453741
0.452591
0.451439
0.450285
0.449131
0.447975
0.446818
0.44566
0.444501
0.44334
0.442178
0.441015
0.43985
0.438685
0.437518
0.436349
0.43518
0.434009
0.432838
0.431665
0.430491
0.429315
0.428139
0.426961
0.425782
0.424602
0.423421
0.422239
0.421055
0.419871
0.418685
0.417498
0.41631
0.415121
0.413931
0.41274
0.411548
0.410355
0.409161
0.407966
0.40677
0.405573
0.404375
0.403176
0.401976
0.400775
0.399573
0.39837
0.397166
0.395962
0.394757
0.393551
0.392344
0.391136
0.389927
0.388718
0.387508
0.386297
0.385086
0.383873
0.382661
0.381447
0.380233
0.379018
0.377803
0.376587
0.37537
0.374154
0.372936
0.371718
0.3705
0.369281
0.368062
0.366842
0.365622
0.364402
0.363181
0.361961
0.360739
0.359518
0.358297
0.357075
0.355853
0.354631
0.353409
0.352187
0.350965
0.349743
0.348521
0.347299
0.346078
0.344856
0.343634
0.342413
0.341192
0.339972
0.338751
0.337531
0.336311
0.335092
0.333873
0.332655
0.331438
0.33022
0.329004
0.327788
0.326573
0.325358
0.324145
0.322932
0.32172
0.320509
0.319299
0.31809
0.316882
0.315675
0.314469
0.313265
0.312061
0.310859
0.309658
0.308459
0.307261
0.306064
0.304869
0.303676
0.302484
0.301294
0.300106
0.298919
0.297734
0.296551
0.29537
0.294191
0.293014
0.29184
0.290667
0.289497
0.288329
0.287163
0.286
0.284839
0.28368
0.282525
0.281372
0.280221
0.279074
0.277929
0.276787
0.275648
0.274512
0.27338
0.27225
0.271124
0.270001
0.268881
0.267765
0.266653
0.265544
0.264438
0.263337
0.262239
0.261145
0.260055
0.258969
0.257887
0.256809
0.255736
0.254667
0.253602
0.252542
0.251487
0.250436
0.249389
0.248348
0.247312
0.24628
0.245254
0.244232
0.243216
0.242206
0.2412
0.2402
0.239206
0.238218
0.237235
0.236258
0.235287
0.234322
0.233363
0.23241
0.231463
0.230523
0.22959
0.228663
0.227742
0.226829
0.225922
0.225022
0.22413
0.223244
0.222366
0.221495
0.220631
0.219775
0.218927
0.218086
0.217253
0.216428
0.215611
0.214803
0.214002
0.21321
0.212426
0.211651
0.210884
0.210127
0.209378
0.208638
0.207907
0.207185
0.206472
0.205769
0.205076
0.204391
0.203717
0.203052
0.202397
0.201753
0.201118
0.200493
0.199879
0.199275
0.198682
0.198099
0.197527
0.196965
0.196415
0.195875
0.195347
0.194829
0.194323
0.193828
0.193345
0.192873
0.192413
0.191964
0.191528
0.191103
0.19069
0.190289
0.1899
0.189524
0.189159
0.188807
0.188468
0.188141
0.187826
0.187524
0.187235
0.186958
0.186694
0.186443
0.186205
0.18598
0.185768
0.185569
0.185383
0.18521
0.18505
0.184904
0.18477
0.18465
0.184543
0.18445
0.18437
0.184303
0.184249
0.184209
0.184182
0.184169
0.184169
0.184182
0.184209
0.184249
0.184303
0.18437
0.18445
0.184543
0.18465
0.18477
0.184904
0.18505
0.18521
0.185383
0.185569
0.185768
0.18598
0.186205
0.186443
0.186694
0.186958
0.187235
0.187524
0.187826
0.188141
0.188468
0.188808
0.18916
0.189524
0.189901
0.190289
0.19069
0.191103
0.191528
0.191965
0.192413
0.192873
0.193345
0.193829
0.194323
0.194829
0.195347
0.195875
0.196415
0.196965
0.197527
0.198099
0.198682
0.199275
0.199879
0.200494
0.201118
0.201753
0.202398
0.203053
0.203717
0.204392
0.205076
0.20577
0.206473
0.207185
0.207907
0.208638
0.209378
0.210127
0.210885
0.211651
0.212427
0.21321
0.214002
0.214803
0.215612
0.216429
0.217254
0.218086
0.218927
0.219775
0.220631
0.221495
0.222366
0.223244
0.22413
0.225023
0.225923
0.226829
0.227743
0.228663
0.22959
0.230524
0.231464
0.23241
0.233363
0.234322
0.235287
0.236258
0.237235
0.238218
0.239207
0.240201
0.241201
0.242206
0.243217
0.244233
0.245254
0.246281
0.247312
0.248349
0.24939
0.250436
0.251487
0.252543
0.253603
0.254668
0.255737
0.25681
0.257888
0.258969
0.260055
0.261145
0.262239
0.263337
0.264439
0.265544
0.266653
0.267766
0.268882
0.270002
0.271125
0.272251
0.27338
0.274513
0.275649
0.276788
0.27793
0.279074
0.280222
0.281372
0.282525
0.283681
0.284839
0.286
0.287163
0.288329
0.289497
0.290668
0.29184
0.293015
0.294192
0.295371
0.296552
0.297735
0.298919
0.300106
0.301294
0.302485
0.303676
0.30487
0.306065
0.307261
0.308459
0.309659
0.31086
0.312062
0.313265
0.31447
0.315676
0.316882
0.31809
0.3193
0.32051
0.321721
0.322933
0.324145
0.325359
0.326573
0.327789
0.329004
0.330221
0.331438
0.332656
0.333874
0.335093
0.336312
0.337532
0.338752
0.339972
0.341193
0.342414
0.343635
0.344856
0.346078
0.3473
0.348522
0.349744
0.350966
0.352188
0.35341
0.354632
0.355854
0.357075
0.358297
0.359519
0.36074
0.361961
0.363182
0.364402
0.365623
0.366843
0.368062
0.369281
0.3705
0.371719
0.372936
0.374154
0.375371
0.376587
0.377803
0.379019
0.380233
0.381447
0.382661
0.383874
0.385086
0.386297
0.387508
0.388718
0.389928
0.391136
0.392344
0.393551
0.394757
0.395962
0.397167
0.39837
0.399573
0.400775
0.401976
0.403176
0.404375
0.405573
0.40677
0.407966
0.409161
0.410356
0.411549
0.412741
0.413932
0.415122
0.416311
0.417498
0.418685
0.419871
0.421055
0.422239
0.423421
0.424602
0.425782
0.426961
0.428139
0.429315
0.430491
0.431665
0.432838
0.43401
0.43518
0.43635
0.437518
0.438685
0.43985
0.441015
0.442178
0.44334
0.444501
0.44566
0.446819
0.447976
0.449131
0.450286
0.451439
0.452591
0.453741
0.454891
0.456039
0.457185
0.458331
0.459475
0.460618
0.46176
0.4629
0.464039
0.465177
0.466313
0.467448
0.468582
0.469715
0.470846
0.471976
0.473105
0.474232
0.475358
0.476483
0.477607
0.478729
0.47985
0.48097
0.482088
0.483205
0.484321
0.485436
0.486549
0.487661
0.488772
0.489881
0.490989
0.492096
0.493202
0.494307
0.49541
0.496512
0.497613
0.498712
0.49981
0.500907
0.502003
0.503098
0.504191
0.505283
0.506374
0.507464
0.508553
0.50964
0.510726
0.511811
0.512895
0.513978
0.515059
0.516139
0.517218
0.518296
0.519373
0.520449
0.521523
0.522596
0.523669
0.52474
0.525809
0.526878
0.527946
0.529012
0.530078
0.531142
0.532205
0.533267
0.534328
0.535388
0.536446
0.537504
0.538561
0.539616
0.54067
0.541723
0.542775
0.543826
0.544876
0.545925
0.546973
0.548019
0.549065
0.550109
0.551152
0.552194
0.553235
0.554275
0.555314
0.556351
0.557388
0.558423
0.559457
0.56049
0.561522
0.562552
0.563581
0.564609
0.565636
0.566662
0.567686
0.568709
0.569731
0.570751
0.57177
0.572788
0.573804
0.574819
0.575832
0.576844
0.577854
0.578863
0.57987
0.580875
0.581879
0.582881
0.583881
0.584879
0.585876
0.58687
0.587863
0.588853
0.589841
0.590827
0.59181
0.592792
0.59377
0.594746
0.59572
0.59669
0.597658
0.598622
0.599584
0.600542
0.601496
0.602447
0.603394
0.604338
0.605277
0.606212
0.607142
0.608067
0.608988
0.609903
0.610813
0.611717
0.612615
0.613506
0.614391
0.615268
0.616138
0.617
0.617854
0.618699
0.619535
0.620361
0.621176
0.62198
0.622772
0.623552
0.624319
0.625072
0.625809
0.626531
0.627236
0.627922
0.628589
0.629236
0.629861
0.630462
0.631037
0.631586
0.632105
0.632593
0.633047
0.633464
0.633842
0.634178
0.634467
0.634707
0.634892
0.635018
0.635079
0.635069
0.634982
0.63481
0.634544
0.634174
0.63369
0.633078
0.632324
0.63141
0.630318
0.629024
0.6275
0.625716
0.623632
0.621202
0.618371
0.61507
0.611213
0.606695
0.601377
0.595083
0.58758
0.578553
0.567565
0.553997
0.536939
0.515005
0.486011
0.446496
0.391812
0.32474
0.313578
)
;

boundaryField
{
    top_wall
    {
        type            kLowReWallFunction;
        value           uniform 0.00309215;
    }
    inlet
    {
        type            cyclic;
    }
    bot_wall
    {
        type            kLowReWallFunction;
        value           uniform 0.00309215;
    }
    outlet
    {
        type            cyclic;
    }
    frontAndBack
    {
        type            empty;
    }
}


// ************************************************************************* //
