/*--------------------------------*- C++ -*----------------------------------*\
| =========                 |                                                 |
| \\      /  F ield         | OpenFOAM: The Open Source CFD Toolbox           |
|  \\    /   O peration     | Version:  2312                                  |
|   \\  /    A nd           | Website:  www.openfoam.com                      |
|    \\/     M anipulation  |                                                 |
\*---------------------------------------------------------------------------*/
FoamFile
{
    version     2.0;
    format      ascii;
    arch        "LSB;label=32;scalar=64";
    class       volScalarField;
    location    "21.65";
    object      nut;
}
// * * * * * * * * * * * * * * * * * * * * * * * * * * * * * * * * * * * * * //

dimensions      [0 2 -1 0 0 0 0];

internalField   nonuniform List<scalar> 
1000
(
2.95186e-06
6.7294e-06
1.45483e-05
2.40263e-05
3.38973e-05
4.37691e-05
5.35244e-05
6.31303e-05
7.25822e-05
8.18848e-05
9.1046e-05
0.000100074
0.000108978
0.000117764
0.000126439
0.00013501
0.000143481
0.000151858
0.000160144
0.000168344
0.00017646
0.000184497
0.000192456
0.00020034
0.000208153
0.000215895
0.000223569
0.000231176
0.000238718
0.000246198
0.000253615
0.000260972
0.00026827
0.00027551
0.000282693
0.00028982
0.000296891
0.000303909
0.000310874
0.000317786
0.000324646
0.000331456
0.000338215
0.000344925
0.000351585
0.000358197
0.000364762
0.000371279
0.000377749
0.000384172
0.00039055
0.000396883
0.00040317
0.000409413
0.000415612
0.000421766
0.000427877
0.000433946
0.000439971
0.000445954
0.000451894
0.000457793
0.00046365
0.000469466
0.000475241
0.000480975
0.000486668
0.000492322
0.000497935
0.000503508
0.000509042
0.000514536
0.000519991
0.000525407
0.000530785
0.000536123
0.000541424
0.000546686
0.00055191
0.000557097
0.000562245
0.000567356
0.00057243
0.000577466
0.000582466
0.000587429
0.000592354
0.000597244
0.000602096
0.000606913
0.000611693
0.000616437
0.000621146
0.000625818
0.000630455
0.000635056
0.000639622
0.000644153
0.000648648
0.000653109
0.000657534
0.000661925
0.000666281
0.000670602
0.000674889
0.000679142
0.00068336
0.000687545
0.000691695
0.000695811
0.000699893
0.000703942
0.000707957
0.000711939
0.000715887
0.000719802
0.000723684
0.000727532
0.000731348
0.00073513
0.00073888
0.000742597
0.000746282
0.000749934
0.000753553
0.00075714
0.000760695
0.000764218
0.000767709
0.000771168
0.000774595
0.00077799
0.000781354
0.000784686
0.000787986
0.000791255
0.000794493
0.0007977
0.000800875
0.00080402
0.000807134
0.000810216
0.000813268
0.00081629
0.000819281
0.000822241
0.000825171
0.000828071
0.00083094
0.00083378
0.000836589
0.000839369
0.000842119
0.000844839
0.000847529
0.00085019
0.000852822
0.000855424
0.000857997
0.00086054
0.000863055
0.000865541
0.000867997
0.000870425
0.000872825
0.000875195
0.000877537
0.000879851
0.000882137
0.000884394
0.000886623
0.000888824
0.000890997
0.000893142
0.00089526
0.00089735
0.000899412
0.000901447
0.000903454
0.000905435
0.000907388
0.000909313
0.000911212
0.000913084
0.00091493
0.000916748
0.00091854
0.000920306
0.000922045
0.000923757
0.000925444
0.000927104
0.000928738
0.000930347
0.000931929
0.000933486
0.000935017
0.000936523
0.000938003
0.000939458
0.000940888
0.000942292
0.000943672
0.000945026
0.000946356
0.000947661
0.000948941
0.000950197
0.000951428
0.000952635
0.000953818
0.000954976
0.000956111
0.000957221
0.000958308
0.000959371
0.00096041
0.000961426
0.000962418
0.000963387
0.000964332
0.000965255
0.000966154
0.000967031
0.000967885
0.000968716
0.000969524
0.00097031
0.000971073
0.000971814
0.000972533
0.000973229
0.000973904
0.000974556
0.000975187
0.000975796
0.000976384
0.00097695
0.000977494
0.000978017
0.000978519
0.000979
0.00097946
0.000979899
0.000980317
0.000980715
0.000981091
0.000981448
0.000981784
0.000982099
0.000982395
0.00098267
0.000982925
0.000983161
0.000983377
0.000983573
0.000983749
0.000983906
0.000984044
0.000984162
0.000984262
0.000984342
0.000984403
0.000984445
0.000984469
0.000984474
0.000984461
0.000984429
0.000984378
0.00098431
0.000984223
0.000984119
0.000983996
0.000983856
0.000983698
0.000983522
0.000983329
0.000983118
0.00098289
0.000982645
0.000982383
0.000982104
0.000981808
0.000981496
0.000981166
0.00098082
0.000980458
0.000980079
0.000979684
0.000979273
0.000978846
0.000978403
0.000977944
0.000977469
0.000976979
0.000976473
0.000975952
0.000975415
0.000974864
0.000974297
0.000973715
0.000973118
0.000972507
0.00097188
0.00097124
0.000970584
0.000969915
0.000969231
0.000968533
0.000967821
0.000967094
0.000966355
0.000965601
0.000964833
0.000964053
0.000963258
0.000962451
0.00096163
0.000960796
0.000959949
0.000959089
0.000958216
0.000957331
0.000956433
0.000955522
0.000954599
0.000953664
0.000952716
0.000951757
0.000950785
0.000949802
0.000948807
0.0009478
0.000946782
0.000945752
0.000944711
0.000943658
0.000942595
0.00094152
0.000940435
0.000939339
0.000938232
0.000937114
0.000935986
0.000934847
0.000933699
0.00093254
0.000931371
0.000930192
0.000929003
0.000927804
0.000926596
0.000925378
0.000924151
0.000922915
0.000921669
0.000920414
0.00091915
0.000917878
0.000916596
0.000915306
0.000914008
0.000912701
0.000911386
0.000910062
0.000908731
0.000907392
0.000906044
0.00090469
0.000903327
0.000901957
0.00090058
0.000899196
0.000897804
0.000896406
0.000895001
0.000893589
0.00089217
0.000890745
0.000889314
0.000887877
0.000886434
0.000884985
0.00088353
0.00088207
0.000880604
0.000879133
0.000877657
0.000876176
0.000874691
0.000873201
0.000871706
0.000870207
0.000868704
0.000867197
0.000865686
0.000864172
0.000862655
0.000861134
0.000859611
0.000858084
0.000856556
0.000855025
0.000853491
0.000851956
0.00085042
0.000848882
0.000847342
0.000845802
0.000844261
0.00084272
0.000841179
0.000839638
0.000838097
0.000836557
0.000835018
0.00083348
0.000831943
0.000830409
0.000828877
0.000827347
0.000825821
0.000824297
0.000822777
0.000821261
0.000819749
0.000818242
0.00081674
0.000815243
0.000813753
0.000812268
0.00081079
0.000809319
0.000807855
0.000806399
0.000804952
0.000803513
0.000802084
0.000800664
0.000799254
0.000797855
0.000796467
0.00079509
0.000793725
0.000792373
0.000791034
0.000789708
0.000788396
0.000787099
0.000785817
0.00078455
0.000783299
0.000782064
0.000780846
0.000779646
0.000778464
0.0007773
0.000776155
0.00077503
0.000773924
0.000772839
0.000771775
0.000770732
0.000769711
0.000768712
0.000767735
0.000766782
0.000765853
0.000764947
0.000764066
0.000763209
0.000762378
0.000761572
0.000760792
0.000760038
0.000759311
0.000758611
0.000757937
0.000757292
0.000756674
0.000756083
0.000755522
0.000754988
0.000754483
0.000754007
0.00075356
0.000753142
0.000752754
0.000752394
0.000752065
0.000751765
0.000751495
0.000751254
0.000751044
0.000750864
0.000750713
0.000750593
0.000750503
0.000750442
0.000750412
0.000750412
0.000750442
0.000750503
0.000750593
0.000750713
0.000750864
0.000751044
0.000751255
0.000751495
0.000751765
0.000752065
0.000752395
0.000752754
0.000753143
0.00075356
0.000754008
0.000754484
0.000754989
0.000755522
0.000756084
0.000756674
0.000757292
0.000757938
0.000758611
0.000759312
0.000760039
0.000760793
0.000761573
0.000762379
0.00076321
0.000764067
0.000764948
0.000765853
0.000766783
0.000767736
0.000768713
0.000769712
0.000770733
0.000771776
0.00077284
0.000773925
0.000775031
0.000776156
0.000777301
0.000778465
0.000779647
0.000780847
0.000782065
0.0007833
0.000784551
0.000785818
0.0007871
0.000788398
0.000789709
0.000791035
0.000792374
0.000793727
0.000795091
0.000796468
0.000797856
0.000799255
0.000800665
0.000802085
0.000803515
0.000804953
0.000806401
0.000807857
0.00080932
0.000810791
0.000812269
0.000813754
0.000815245
0.000816742
0.000818244
0.000819751
0.000821263
0.000822779
0.000824299
0.000825822
0.000827349
0.000828879
0.000830411
0.000831945
0.000833481
0.000835019
0.000836558
0.000838098
0.000839639
0.00084118
0.000842722
0.000844263
0.000845804
0.000847344
0.000848883
0.000850421
0.000851958
0.000853493
0.000855026
0.000856557
0.000858086
0.000859612
0.000861136
0.000862656
0.000864174
0.000865688
0.000867199
0.000868706
0.000870209
0.000871707
0.000873202
0.000874692
0.000876178
0.000877659
0.000879135
0.000880606
0.000882072
0.000883532
0.000884987
0.000886436
0.000887879
0.000889316
0.000890747
0.000892172
0.00089359
0.000895002
0.000896407
0.000897806
0.000899197
0.000900582
0.000901959
0.000903329
0.000904691
0.000906046
0.000907393
0.000908733
0.000910064
0.000911387
0.000912703
0.000914009
0.000915308
0.000916598
0.000917879
0.000919152
0.000920416
0.00092167
0.000922916
0.000924153
0.00092538
0.000926598
0.000927806
0.000929004
0.000930193
0.000931372
0.000932541
0.0009337
0.000934849
0.000935988
0.000937116
0.000938233
0.00093934
0.000940436
0.000941522
0.000942596
0.00094366
0.000944712
0.000945754
0.000946783
0.000947802
0.000948808
0.000949804
0.000950787
0.000951758
0.000952718
0.000953665
0.0009546
0.000955523
0.000956434
0.000957332
0.000958217
0.00095909
0.00095995
0.000960797
0.000961631
0.000962452
0.00096326
0.000964054
0.000964835
0.000965602
0.000966356
0.000967096
0.000967822
0.000968534
0.000969232
0.000969916
0.000970586
0.000971241
0.000971882
0.000972508
0.000973119
0.000973716
0.000974298
0.000974865
0.000975417
0.000975953
0.000976474
0.00097698
0.00097747
0.000977945
0.000978404
0.000978847
0.000979274
0.000979685
0.00098008
0.000980459
0.000980822
0.000981167
0.000981497
0.00098181
0.000982105
0.000982385
0.000982647
0.000982892
0.000983119
0.00098333
0.000983523
0.000983699
0.000983857
0.000983997
0.00098412
0.000984224
0.000984311
0.000984379
0.00098443
0.000984462
0.000984475
0.00098447
0.000984447
0.000984404
0.000984343
0.000984263
0.000984163
0.000984045
0.000983907
0.00098375
0.000983574
0.000983378
0.000983162
0.000982926
0.000982671
0.000982396
0.0009821
0.000981785
0.000981449
0.000981092
0.000980716
0.000980318
0.0009799
0.000979461
0.000979001
0.00097852
0.000978018
0.000977495
0.000976951
0.000976385
0.000975797
0.000975188
0.000974557
0.000973905
0.00097323
0.000972534
0.000971815
0.000971074
0.00097031
0.000969525
0.000968716
0.000967886
0.000967032
0.000966155
0.000965256
0.000964333
0.000963388
0.000962419
0.000961426
0.000960411
0.000959371
0.000958309
0.000957222
0.000956111
0.000954977
0.000953818
0.000952636
0.000951429
0.000950197
0.000948942
0.000947661
0.000946357
0.000945027
0.000943672
0.000942293
0.000940888
0.000939459
0.000938004
0.000936524
0.000935018
0.000933487
0.00093193
0.000930347
0.000928739
0.000927105
0.000925444
0.000923758
0.000922045
0.000920306
0.000918541
0.000916749
0.00091493
0.000913085
0.000911213
0.000909314
0.000907388
0.000905435
0.000903455
0.000901447
0.000899413
0.00089735
0.00089526
0.000893143
0.000890998
0.000888825
0.000886624
0.000884394
0.000882137
0.000879852
0.000877538
0.000875196
0.000872825
0.000870426
0.000867998
0.000865541
0.000863055
0.000860541
0.000857997
0.000855424
0.000852822
0.000850191
0.00084753
0.000844839
0.000842119
0.000839369
0.00083659
0.00083378
0.000830941
0.000828071
0.000825171
0.000822241
0.000819281
0.00081629
0.000813269
0.000810217
0.000807134
0.00080402
0.000800876
0.0007977
0.000794493
0.000791256
0.000787986
0.000784686
0.000781354
0.00077799
0.000774595
0.000771168
0.000767709
0.000764218
0.000760696
0.000757141
0.000753553
0.000749934
0.000746282
0.000742597
0.00073888
0.00073513
0.000731348
0.000727532
0.000723684
0.000719802
0.000715887
0.000711939
0.000707957
0.000703942
0.000699894
0.000695811
0.000691695
0.000687545
0.00068336
0.000679142
0.000674889
0.000670603
0.000666281
0.000661925
0.000657534
0.000653109
0.000648648
0.000644153
0.000639622
0.000635056
0.000630455
0.000625818
0.000621146
0.000616437
0.000611693
0.000606913
0.000602096
0.000597244
0.000592354
0.000587429
0.000582466
0.000577466
0.00057243
0.000567356
0.000562245
0.000557097
0.00055191
0.000546686
0.000541424
0.000536123
0.000530785
0.000525407
0.000519991
0.000514536
0.000509042
0.000503508
0.000497935
0.000492321
0.000486668
0.000480975
0.000475241
0.000469466
0.00046365
0.000457793
0.000451894
0.000445954
0.000439971
0.000433946
0.000427877
0.000421766
0.000415611
0.000409413
0.00040317
0.000396883
0.00039055
0.000384172
0.000377749
0.000371278
0.000364762
0.000358197
0.000351585
0.000344925
0.000338215
0.000331456
0.000324646
0.000317786
0.000310874
0.000303909
0.000296891
0.000289819
0.000282693
0.00027551
0.00026827
0.000260972
0.000253615
0.000246198
0.000238718
0.000231176
0.000223568
0.000215895
0.000208153
0.00020034
0.000192456
0.000184497
0.00017646
0.000168344
0.000160144
0.000151858
0.000143481
0.00013501
0.000126439
0.000117764
0.000108978
0.000100074
9.1046e-05
8.18848e-05
7.25822e-05
6.31303e-05
5.35243e-05
4.37691e-05
3.38973e-05
2.40262e-05
1.45483e-05
6.7294e-06
2.95186e-06
)
;

boundaryField
{
    top_wall
    {
        type            nutLowReWallFunction;
        value           uniform 0;
    }
    inlet
    {
        type            cyclic;
    }
    bot_wall
    {
        type            nutLowReWallFunction;
        value           uniform 0;
    }
    outlet
    {
        type            cyclic;
    }
    frontAndBack
    {
        type            empty;
    }
}


// ************************************************************************* //
