/*--------------------------------*- C++ -*----------------------------------*\
| =========                 |                                                 |
| \\      /  F ield         | OpenFOAM: The Open Source CFD Toolbox           |
|  \\    /   O peration     | Version:  2312                                  |
|   \\  /    A nd           | Website:  www.openfoam.com                      |
|    \\/     M anipulation  |                                                 |
\*---------------------------------------------------------------------------*/
FoamFile
{
    version     2.0;
    format      ascii;
    arch        "LSB;label=32;scalar=64";
    class       volVectorField;
    location    "21.65";
    object      U;
}
// * * * * * * * * * * * * * * * * * * * * * * * * * * * * * * * * * * * * * //

dimensions      [0 1 -1 0 0 0 0];

internalField   nonuniform List<vector> 
1000
(
(0.357376 -3.28789e-18 0)
(0.898005 -6.8461e-18 0)
(1.31627 -6.43452e-18 0)
(1.62888 -6.24393e-18 0)
(1.87246 -6.19602e-18 0)
(2.07111 -6.19315e-18 0)
(2.23888 -6.19569e-18 0)
(2.38426 -6.19825e-18 0)
(2.51271 -6.19606e-18 0)
(2.62789 -6.19114e-18 0)
(2.73241 -6.18509e-18 0)
(2.82815 -6.17836e-18 0)
(2.91656 -6.1721e-18 0)
(2.99872 -6.16549e-18 0)
(3.0755 -6.16641e-18 0)
(3.14761 -6.17436e-18 0)
(3.21561 -6.18376e-18 0)
(3.27997 -6.19458e-18 0)
(3.34108 -6.2058e-18 0)
(3.39926 -6.22052e-18 0)
(3.45482 -6.21613e-18 0)
(3.50797 -6.2125e-18 0)
(3.55895 -6.23062e-18 0)
(3.60792 -6.22676e-18 0)
(3.65505 -6.22173e-18 0)
(3.70048 -6.23213e-18 0)
(3.74434 -6.23916e-18 0)
(3.78673 -6.2504e-18 0)
(3.82777 -6.25311e-18 0)
(3.86753 -6.256e-18 0)
(3.9061 -6.26737e-18 0)
(3.94356 -6.27948e-18 0)
(3.97997 -6.28382e-18 0)
(4.01539 -6.28786e-18 0)
(4.04988 -6.29839e-18 0)
(4.08348 -6.30581e-18 0)
(4.11626 -6.31835e-18 0)
(4.14824 -6.32738e-18 0)
(4.17947 -6.33571e-18 0)
(4.20999 -6.34758e-18 0)
(4.23982 -6.3555e-18 0)
(4.26901 -6.36262e-18 0)
(4.29758 -6.36858e-18 0)
(4.32556 -6.37372e-18 0)
(4.35298 -6.37629e-18 0)
(4.37985 -6.3764e-18 0)
(4.40621 -6.37862e-18 0)
(4.43207 -6.38264e-18 0)
(4.45745 -6.38551e-18 0)
(4.48237 -6.38755e-18 0)
(4.50685 -6.38908e-18 0)
(4.53091 -6.38708e-18 0)
(4.55456 -6.38143e-18 0)
(4.57782 -6.3765e-18 0)
(4.60069 -6.37665e-18 0)
(4.6232 -6.3818e-18 0)
(4.64536 -6.38631e-18 0)
(4.66718 -6.38429e-18 0)
(4.68866 -6.37745e-18 0)
(4.70983 -6.37331e-18 0)
(4.73068 -6.37181e-18 0)
(4.75124 -6.36676e-18 0)
(4.7715 -6.35829e-18 0)
(4.79149 -6.35085e-18 0)
(4.8112 -6.34756e-18 0)
(4.83065 -6.34366e-18 0)
(4.84984 -6.33632e-18 0)
(4.86878 -6.33024e-18 0)
(4.88748 -6.32659e-18 0)
(4.90595 -6.32386e-18 0)
(4.92418 -6.32062e-18 0)
(4.94219 -6.31697e-18 0)
(4.95999 -6.31293e-18 0)
(4.97757 -6.30851e-18 0)
(4.99495 -6.30371e-18 0)
(5.01213 -6.29854e-18 0)
(5.02912 -6.293e-18 0)
(5.04591 -6.2871e-18 0)
(5.06252 -6.28084e-18 0)
(5.07895 -6.27423e-18 0)
(5.0952 -6.26726e-18 0)
(5.11128 -6.26003e-18 0)
(5.1272 -6.25235e-18 0)
(5.14295 -6.24568e-18 0)
(5.15853 -6.24141e-18 0)
(5.17397 -6.23944e-18 0)
(5.18925 -6.23967e-18 0)
(5.20438 -6.24369e-18 0)
(5.21936 -6.25002e-18 0)
(5.2342 -6.25573e-18 0)
(5.24891 -6.26106e-18 0)
(5.26347 -6.26594e-18 0)
(5.2779 -6.27038e-18 0)
(5.2922 -6.27446e-18 0)
(5.30637 -6.27817e-18 0)
(5.32042 -6.28153e-18 0)
(5.33434 -6.28448e-18 0)
(5.34815 -6.28703e-18 0)
(5.36183 -6.28926e-18 0)
(5.3754 -6.2912e-18 0)
(5.38886 -6.29286e-18 0)
(5.4022 -6.2943e-18 0)
(5.41544 -6.29559e-18 0)
(5.42857 -6.29683e-18 0)
(5.44159 -6.29824e-18 0)
(5.45451 -6.30005e-18 0)
(5.46733 -6.30323e-18 0)
(5.48006 -6.29829e-18 0)
(5.49268 -6.27527e-18 0)
(5.50521 -6.2514e-18 0)
(5.51764 -6.24389e-18 0)
(5.52999 -6.24259e-18 0)
(5.54224 -6.23655e-18 0)
(5.5544 -6.22671e-18 0)
(5.56648 -6.2163e-18 0)
(5.57847 -6.20696e-18 0)
(5.59037 -6.19881e-18 0)
(5.60219 -6.19215e-18 0)
(5.61394 -6.18618e-18 0)
(5.6256 -6.17388e-18 0)
(5.63718 -6.18309e-18 0)
(5.64868 -6.19269e-18 0)
(5.66011 -6.1822e-18 0)
(5.67147 -6.1776e-18 0)
(5.68274 -6.17168e-18 0)
(5.69395 -6.16648e-18 0)
(5.70509 -6.16367e-18 0)
(5.71615 -6.16175e-18 0)
(5.72715 -6.15921e-18 0)
(5.73807 -6.15763e-18 0)
(5.74894 -6.15758e-18 0)
(5.75973 -6.14879e-18 0)
(5.77046 -6.11444e-18 0)
(5.78112 -6.08158e-18 0)
(5.79172 -6.07711e-18 0)
(5.80226 -6.0833e-18 0)
(5.81274 -6.0794e-18 0)
(5.82316 -6.06562e-18 0)
(5.83352 -6.05388e-18 0)
(5.84382 -6.0561e-18 0)
(5.85406 -6.07234e-18 0)
(5.86424 -6.08216e-18 0)
(5.87437 -6.05733e-18 0)
(5.88444 -6.0324e-18 0)
(5.89446 -6.04158e-18 0)
(5.90442 -6.0572e-18 0)
(5.91433 -6.0709e-18 0)
(5.92419 -6.08347e-18 0)
(5.93399 -6.0754e-18 0)
(5.94375 -6.06103e-18 0)
(5.95345 -6.04689e-18 0)
(5.96311 -6.04012e-18 0)
(5.97271 -6.0534e-18 0)
(5.98227 -6.06603e-18 0)
(5.99178 -6.07842e-18 0)
(6.00124 -6.09087e-18 0)
(6.01065 -6.10304e-18 0)
(6.02002 -6.10521e-18 0)
(6.02934 -6.10263e-18 0)
(6.03862 -6.0897e-18 0)
(6.04785 -6.05553e-18 0)
(6.05704 -6.02003e-18 0)
(6.06619 -5.9976e-18 0)
(6.07529 -5.98354e-18 0)
(6.08435 -5.96943e-18 0)
(6.09337 -5.94149e-18 0)
(6.10235 -5.90272e-18 0)
(6.11128 -5.88317e-18 0)
(6.12018 -5.87575e-18 0)
(6.12903 -5.86372e-18 0)
(6.13785 -5.85256e-18 0)
(6.14663 -5.82657e-18 0)
(6.15536 -5.79318e-18 0)
(6.16406 -5.76653e-18 0)
(6.17273 -5.73978e-18 0)
(6.18135 -5.69558e-18 0)
(6.18994 -5.64316e-18 0)
(6.19849 -5.58514e-18 0)
(6.20701 -5.52237e-18 0)
(6.21548 -5.4814e-18 0)
(6.22393 -5.45078e-18 0)
(6.23234 -5.42134e-18 0)
(6.24071 -5.40818e-18 0)
(6.24905 -5.38883e-18 0)
(6.25735 -5.36296e-18 0)
(6.26563 -5.34837e-18 0)
(6.27386 -5.33173e-18 0)
(6.28207 -5.29875e-18 0)
(6.29024 -5.25963e-18 0)
(6.29838 -5.22128e-18 0)
(6.30649 -5.18199e-18 0)
(6.31456 -5.15935e-18 0)
(6.32261 -5.13845e-18 0)
(6.33062 -5.1111e-18 0)
(6.3386 -5.08254e-18 0)
(6.34656 -5.04461e-18 0)
(6.35448 -5.00807e-18 0)
(6.36237 -4.98365e-18 0)
(6.37023 -4.96389e-18 0)
(6.37806 -4.93207e-18 0)
(6.38586 -4.89577e-18 0)
(6.39363 -4.8586e-18 0)
(6.40138 -4.82795e-18 0)
(6.40909 -4.81308e-18 0)
(6.41678 -4.79548e-18 0)
(6.42444 -4.77095e-18 0)
(6.43207 -4.75181e-18 0)
(6.43967 -4.73327e-18 0)
(6.44725 -4.70792e-18 0)
(6.4548 -4.67771e-18 0)
(6.46232 -4.63923e-18 0)
(6.46982 -4.60158e-18 0)
(6.47728 -4.56422e-18 0)
(6.48473 -4.54169e-18 0)
(6.49214 -4.53492e-18 0)
(6.49953 -4.52908e-18 0)
(6.50689 -4.49188e-18 0)
(6.51423 -4.44758e-18 0)
(6.52154 -4.40435e-18 0)
(6.52883 -4.36742e-18 0)
(6.53609 -4.35753e-18 0)
(6.54333 -4.32254e-18 0)
(6.55054 -4.27839e-18 0)
(6.55773 -4.25924e-18 0)
(6.56489 -4.23791e-18 0)
(6.57203 -4.20968e-18 0)
(6.57914 -4.19266e-18 0)
(6.58623 -4.18123e-18 0)
(6.5933 -4.20268e-18 0)
(6.60034 -4.21216e-18 0)
(6.60736 -4.16184e-18 0)
(6.61436 -4.12044e-18 0)
(6.62133 -4.10524e-18 0)
(6.62828 -4.09225e-18 0)
(6.6352 -4.07075e-18 0)
(6.64211 -4.02662e-18 0)
(6.64899 -3.9942e-18 0)
(6.65584 -3.98701e-18 0)
(6.66268 -3.97964e-18 0)
(6.66949 -3.96305e-18 0)
(6.67628 -3.94573e-18 0)
(6.68305 -3.93024e-18 0)
(6.6898 -3.93078e-18 0)
(6.69652 -3.94336e-18 0)
(6.70322 -3.94552e-18 0)
(6.7099 -3.95204e-18 0)
(6.71656 -3.95034e-18 0)
(6.7232 -3.89919e-18 0)
(6.72981 -3.84443e-18 0)
(6.7364 -3.82463e-18 0)
(6.74298 -3.8174e-18 0)
(6.74953 -3.81541e-18 0)
(6.75606 -3.77572e-18 0)
(6.76256 -3.69001e-18 0)
(6.76905 -3.62964e-18 0)
(6.77552 -3.61751e-18 0)
(6.78196 -3.60969e-18 0)
(6.78839 -3.58127e-18 0)
(6.79479 -3.52388e-18 0)
(6.80118 -3.46754e-18 0)
(6.80754 -3.43448e-18 0)
(6.81388 -3.40932e-18 0)
(6.8202 -3.36606e-18 0)
(6.8265 -3.29763e-18 0)
(6.83279 -3.23296e-18 0)
(6.83905 -3.19514e-18 0)
(6.84529 -3.17063e-18 0)
(6.85151 -3.10812e-18 0)
(6.85771 -3.01836e-18 0)
(6.86389 -2.98446e-18 0)
(6.87005 -2.96716e-18 0)
(6.87619 -2.92857e-18 0)
(6.88231 -2.88543e-18 0)
(6.88841 -2.82626e-18 0)
(6.89449 -2.7956e-18 0)
(6.90055 -2.79898e-18 0)
(6.90659 -2.75842e-18 0)
(6.91261 -2.6964e-18 0)
(6.91861 -2.66142e-18 0)
(6.92459 -2.62908e-18 0)
(6.93055 -2.58656e-18 0)
(6.93649 -2.54058e-18 0)
(6.94242 -2.50736e-18 0)
(6.94832 -2.4803e-18 0)
(6.9542 -2.44908e-18 0)
(6.96006 -2.40228e-18 0)
(6.96591 -2.35196e-18 0)
(6.97173 -2.30229e-18 0)
(6.97754 -2.25766e-18 0)
(6.98332 -2.22717e-18 0)
(6.98909 -2.19994e-18 0)
(6.99484 -2.17263e-18 0)
(7.00056 -2.13706e-18 0)
(7.00627 -2.08255e-18 0)
(7.01196 -2.04164e-18 0)
(7.01763 -2.02407e-18 0)
(7.02327 -2.03846e-18 0)
(7.0289 -2.04022e-18 0)
(7.03451 -2.0017e-18 0)
(7.04011 -1.96209e-18 0)
(7.04568 -1.92648e-18 0)
(7.05123 -1.90427e-18 0)
(7.05676 -1.88462e-18 0)
(7.06227 -1.86501e-18 0)
(7.06777 -1.83166e-18 0)
(7.07324 -1.79363e-18 0)
(7.07869 -1.76639e-18 0)
(7.08413 -1.74295e-18 0)
(7.08954 -1.71247e-18 0)
(7.09494 -1.65731e-18 0)
(7.10032 -1.59625e-18 0)
(7.10567 -1.58181e-18 0)
(7.11101 -1.58203e-18 0)
(7.11633 -1.57257e-18 0)
(7.12162 -1.5748e-18 0)
(7.1269 -1.57725e-18 0)
(7.13216 -1.58068e-18 0)
(7.1374 -1.58506e-18 0)
(7.14262 -1.5903e-18 0)
(7.14782 -1.59628e-18 0)
(7.153 -1.6029e-18 0)
(7.15815 -1.61002e-18 0)
(7.16329 -1.61754e-18 0)
(7.16841 -1.62531e-18 0)
(7.17351 -1.63324e-18 0)
(7.17859 -1.64127e-18 0)
(7.18365 -1.64931e-18 0)
(7.18869 -1.65726e-18 0)
(7.19371 -1.66507e-18 0)
(7.19871 -1.67272e-18 0)
(7.20369 -1.68016e-18 0)
(7.20865 -1.68735e-18 0)
(7.21358 -1.69426e-18 0)
(7.2185 -1.70088e-18 0)
(7.2234 -1.70718e-18 0)
(7.22828 -1.71316e-18 0)
(7.23313 -1.71881e-18 0)
(7.23797 -1.72413e-18 0)
(7.24279 -1.72912e-18 0)
(7.24758 -1.73378e-18 0)
(7.25235 -1.73811e-18 0)
(7.25711 -1.74212e-18 0)
(7.26184 -1.74583e-18 0)
(7.26655 -1.74924e-18 0)
(7.27124 -1.75236e-18 0)
(7.27591 -1.75519e-18 0)
(7.28056 -1.75773e-18 0)
(7.28519 -1.76e-18 0)
(7.28979 -1.762e-18 0)
(7.29438 -1.76375e-18 0)
(7.29894 -1.76527e-18 0)
(7.30348 -1.76656e-18 0)
(7.308 -1.76764e-18 0)
(7.3125 -1.7685e-18 0)
(7.31698 -1.76913e-18 0)
(7.32144 -1.76956e-18 0)
(7.32587 -1.76979e-18 0)
(7.33028 -1.76983e-18 0)
(7.33467 -1.76969e-18 0)
(7.33904 -1.76938e-18 0)
(7.34338 -1.7689e-18 0)
(7.34771 -1.76827e-18 0)
(7.35201 -1.76748e-18 0)
(7.35629 -1.76655e-18 0)
(7.36054 -1.76548e-18 0)
(7.36478 -1.76428e-18 0)
(7.36899 -1.76295e-18 0)
(7.37318 -1.76147e-18 0)
(7.37734 -1.75986e-18 0)
(7.38149 -1.75811e-18 0)
(7.38561 -1.75623e-18 0)
(7.3897 -1.75422e-18 0)
(7.39378 -1.75209e-18 0)
(7.39783 -1.74984e-18 0)
(7.40186 -1.74748e-18 0)
(7.40586 -1.74501e-18 0)
(7.40984 -1.74243e-18 0)
(7.4138 -1.73975e-18 0)
(7.41773 -1.73698e-18 0)
(7.42164 -1.73411e-18 0)
(7.42552 -1.73115e-18 0)
(7.42938 -1.7281e-18 0)
(7.43322 -1.72497e-18 0)
(7.43703 -1.72176e-18 0)
(7.44082 -1.71847e-18 0)
(7.44458 -1.7151e-18 0)
(7.44832 -1.71167e-18 0)
(7.45203 -1.70817e-18 0)
(7.45572 -1.7046e-18 0)
(7.45939 -1.70098e-18 0)
(7.46303 -1.69729e-18 0)
(7.46664 -1.69355e-18 0)
(7.47023 -1.68975e-18 0)
(7.47379 -1.68588e-18 0)
(7.47733 -1.68196e-18 0)
(7.48084 -1.67798e-18 0)
(7.48433 -1.67396e-18 0)
(7.48779 -1.66989e-18 0)
(7.49122 -1.66576e-18 0)
(7.49463 -1.66156e-18 0)
(7.49801 -1.6573e-18 0)
(7.50137 -1.653e-18 0)
(7.50469 -1.64867e-18 0)
(7.508 -1.64431e-18 0)
(7.51127 -1.63988e-18 0)
(7.51452 -1.6354e-18 0)
(7.51774 -1.63087e-18 0)
(7.52093 -1.62629e-18 0)
(7.5241 -1.62167e-18 0)
(7.52724 -1.617e-18 0)
(7.53035 -1.6123e-18 0)
(7.53343 -1.60755e-18 0)
(7.53649 -1.60277e-18 0)
(7.53952 -1.59796e-18 0)
(7.54251 -1.59311e-18 0)
(7.54548 -1.58823e-18 0)
(7.54843 -1.58333e-18 0)
(7.55134 -1.5784e-18 0)
(7.55422 -1.57344e-18 0)
(7.55708 -1.56846e-18 0)
(7.55991 -1.56346e-18 0)
(7.5627 -1.55844e-18 0)
(7.56547 -1.55341e-18 0)
(7.56821 -1.54835e-18 0)
(7.57092 -1.54329e-18 0)
(7.5736 -1.53821e-18 0)
(7.57624 -1.53311e-18 0)
(7.57886 -1.52801e-18 0)
(7.58145 -1.52289e-18 0)
(7.58401 -1.51777e-18 0)
(7.58653 -1.51265e-18 0)
(7.58903 -1.50751e-18 0)
(7.59149 -1.50237e-18 0)
(7.59393 -1.49723e-18 0)
(7.59633 -1.49209e-18 0)
(7.5987 -1.48695e-18 0)
(7.60104 -1.4818e-18 0)
(7.60334 -1.47666e-18 0)
(7.60562 -1.47152e-18 0)
(7.60786 -1.46638e-18 0)
(7.61007 -1.46125e-18 0)
(7.61225 -1.45612e-18 0)
(7.61439 -1.451e-18 0)
(7.61651 -1.44588e-18 0)
(7.61858 -1.44078e-18 0)
(7.62063 -1.43568e-18 0)
(7.62264 -1.43059e-18 0)
(7.62462 -1.4255e-18 0)
(7.62656 -1.42043e-18 0)
(7.62848 -1.41538e-18 0)
(7.63035 -1.41033e-18 0)
(7.63219 -1.4053e-18 0)
(7.634 -1.40028e-18 0)
(7.63578 -1.39527e-18 0)
(7.63751 -1.39028e-18 0)
(7.63922 -1.3853e-18 0)
(7.64089 -1.38034e-18 0)
(7.64252 -1.3754e-18 0)
(7.64412 -1.37047e-18 0)
(7.64568 -1.36557e-18 0)
(7.64721 -1.36068e-18 0)
(7.6487 -1.3558e-18 0)
(7.65015 -1.35093e-18 0)
(7.65157 -1.34608e-18 0)
(7.65295 -1.34124e-18 0)
(7.6543 -1.33642e-18 0)
(7.65561 -1.33161e-18 0)
(7.65688 -1.32681e-18 0)
(7.65812 -1.32204e-18 0)
(7.65931 -1.31727e-18 0)
(7.66047 -1.31253e-18 0)
(7.6616 -1.30781e-18 0)
(7.66268 -1.3031e-18 0)
(7.66373 -1.29842e-18 0)
(7.66474 -1.29375e-18 0)
(7.66572 -1.28911e-18 0)
(7.66665 -1.28449e-18 0)
(7.66755 -1.27989e-18 0)
(7.66841 -1.27531e-18 0)
(7.66923 -1.27076e-18 0)
(7.67001 -1.26623e-18 0)
(7.67075 -1.26172e-18 0)
(7.67146 -1.25724e-18 0)
(7.67212 -1.25279e-18 0)
(7.67275 -1.24836e-18 0)
(7.67334 -1.24396e-18 0)
(7.67389 -1.23959e-18 0)
(7.6744 -1.23525e-18 0)
(7.67487 -1.23093e-18 0)
(7.67531 -1.22665e-18 0)
(7.6757 -1.2224e-18 0)
(7.67605 -1.21817e-18 0)
(7.67637 -1.21397e-18 0)
(7.67664 -1.20981e-18 0)
(7.67688 -1.20567e-18 0)
(7.67708 -1.20156e-18 0)
(7.67724 -1.19749e-18 0)
(7.67735 -1.19345e-18 0)
(7.67743 -1.18944e-18 0)
(7.67747 -1.18546e-18 0)
(7.67747 -1.18152e-18 0)
(7.67743 -1.17761e-18 0)
(7.67735 -1.17374e-18 0)
(7.67724 -1.1699e-18 0)
(7.67708 -1.16609e-18 0)
(7.67688 -1.16232e-18 0)
(7.67664 -1.15859e-18 0)
(7.67637 -1.1549e-18 0)
(7.67605 -1.15124e-18 0)
(7.6757 -1.14762e-18 0)
(7.67531 -1.14403e-18 0)
(7.67487 -1.14049e-18 0)
(7.6744 -1.13698e-18 0)
(7.67389 -1.13351e-18 0)
(7.67334 -1.13008e-18 0)
(7.67275 -1.1267e-18 0)
(7.67212 -1.12335e-18 0)
(7.67146 -1.12005e-18 0)
(7.67075 -1.11678e-18 0)
(7.67001 -1.11356e-18 0)
(7.66923 -1.11038e-18 0)
(7.66841 -1.10725e-18 0)
(7.66755 -1.10415e-18 0)
(7.66665 -1.10109e-18 0)
(7.66572 -1.09807e-18 0)
(7.66474 -1.09511e-18 0)
(7.66373 -1.09218e-18 0)
(7.66268 -1.0893e-18 0)
(7.6616 -1.08646e-18 0)
(7.66047 -1.08366e-18 0)
(7.65931 -1.0809e-18 0)
(7.65811 -1.07818e-18 0)
(7.65688 -1.07551e-18 0)
(7.65561 -1.07288e-18 0)
(7.6543 -1.0703e-18 0)
(7.65295 -1.06776e-18 0)
(7.65157 -1.06526e-18 0)
(7.65015 -1.06281e-18 0)
(7.6487 -1.06041e-18 0)
(7.64721 -1.05804e-18 0)
(7.64568 -1.05573e-18 0)
(7.64412 -1.05345e-18 0)
(7.64252 -1.05123e-18 0)
(7.64089 -1.04904e-18 0)
(7.63922 -1.04691e-18 0)
(7.63751 -1.04481e-18 0)
(7.63577 -1.04276e-18 0)
(7.634 -1.04076e-18 0)
(7.63219 -1.03879e-18 0)
(7.63035 -1.03688e-18 0)
(7.62847 -1.035e-18 0)
(7.62656 -1.03317e-18 0)
(7.62462 -1.03138e-18 0)
(7.62264 -1.02964e-18 0)
(7.62063 -1.02794e-18 0)
(7.61858 -1.02628e-18 0)
(7.6165 -1.02466e-18 0)
(7.61439 -1.02309e-18 0)
(7.61225 -1.02155e-18 0)
(7.61007 -1.02006e-18 0)
(7.60786 -1.01861e-18 0)
(7.60562 -1.0172e-18 0)
(7.60334 -1.01583e-18 0)
(7.60104 -1.0145e-18 0)
(7.5987 -1.01322e-18 0)
(7.59633 -1.01198e-18 0)
(7.59393 -1.01078e-18 0)
(7.59149 -1.00962e-18 0)
(7.58903 -1.0085e-18 0)
(7.58653 -1.00743e-18 0)
(7.58401 -1.0064e-18 0)
(7.58145 -1.00542e-18 0)
(7.57886 -1.00449e-18 0)
(7.57624 -1.00361e-18 0)
(7.57359 -1.00277e-18 0)
(7.57092 -1.00199e-18 0)
(7.56821 -1.00126e-18 0)
(7.56547 -1.00058e-18 0)
(7.5627 -9.99966e-19 0)
(7.5599 -9.9941e-19 0)
(7.55708 -9.98917e-19 0)
(7.55422 -9.98475e-19 0)
(7.55134 -9.98086e-19 0)
(7.54843 -9.97755e-19 0)
(7.54548 -9.97484e-19 0)
(7.54251 -9.97277e-19 0)
(7.53951 -9.97138e-19 0)
(7.53649 -9.97073e-19 0)
(7.53343 -9.97084e-19 0)
(7.53035 -9.97176e-19 0)
(7.52724 -9.97355e-19 0)
(7.5241 -9.97626e-19 0)
(7.52093 -9.97992e-19 0)
(7.51774 -9.9846e-19 0)
(7.51452 -9.99034e-19 0)
(7.51127 -9.99718e-19 0)
(7.50799 -1.00052e-18 0)
(7.50469 -1.00144e-18 0)
(7.50136 -1.00248e-18 0)
(7.49801 -1.00364e-18 0)
(7.49463 -1.00493e-18 0)
(7.49122 -1.00631e-18 0)
(7.48779 -1.0078e-18 0)
(7.48433 -1.00941e-18 0)
(7.48084 -1.01113e-18 0)
(7.47733 -1.01297e-18 0)
(7.47379 -1.01491e-18 0)
(7.47023 -1.01695e-18 0)
(7.46664 -1.01907e-18 0)
(7.46302 -1.02128e-18 0)
(7.45939 -1.02355e-18 0)
(7.45572 -1.02587e-18 0)
(7.45203 -1.02823e-18 0)
(7.44832 -1.03062e-18 0)
(7.44458 -1.03305e-18 0)
(7.44082 -1.03548e-18 0)
(7.43703 -1.03789e-18 0)
(7.43322 -1.04028e-18 0)
(7.42938 -1.04263e-18 0)
(7.42552 -1.04495e-18 0)
(7.42163 -1.04722e-18 0)
(7.41773 -1.04945e-18 0)
(7.41379 -1.05158e-18 0)
(7.40984 -1.0536e-18 0)
(7.40586 -1.05549e-18 0)
(7.40185 -1.05721e-18 0)
(7.39783 -1.0587e-18 0)
(7.39378 -1.05984e-18 0)
(7.3897 -1.06052e-18 0)
(7.3856 -1.06056e-18 0)
(7.38148 -1.05947e-18 0)
(7.37734 -1.06071e-18 0)
(7.37318 -1.07544e-18 0)
(7.36899 -1.09008e-18 0)
(7.36478 -1.09121e-18 0)
(7.36054 -1.08998e-18 0)
(7.35629 -1.08986e-18 0)
(7.35201 -1.09035e-18 0)
(7.34771 -1.09127e-18 0)
(7.34338 -1.09251e-18 0)
(7.33904 -1.09397e-18 0)
(7.33467 -1.09557e-18 0)
(7.33028 -1.09727e-18 0)
(7.32587 -1.09904e-18 0)
(7.32143 -1.10087e-18 0)
(7.31698 -1.10274e-18 0)
(7.3125 -1.10463e-18 0)
(7.308 -1.10655e-18 0)
(7.30348 -1.10846e-18 0)
(7.29894 -1.11037e-18 0)
(7.29437 -1.11224e-18 0)
(7.28979 -1.11407e-18 0)
(7.28518 -1.11585e-18 0)
(7.28056 -1.11757e-18 0)
(7.27591 -1.1192e-18 0)
(7.27124 -1.12072e-18 0)
(7.26655 -1.12212e-18 0)
(7.26184 -1.1234e-18 0)
(7.2571 -1.12454e-18 0)
(7.25235 -1.12553e-18 0)
(7.24758 -1.12635e-18 0)
(7.24278 -1.12698e-18 0)
(7.23797 -1.12742e-18 0)
(7.23313 -1.12765e-18 0)
(7.22827 -1.12766e-18 0)
(7.2234 -1.12747e-18 0)
(7.2185 -1.12706e-18 0)
(7.21358 -1.12641e-18 0)
(7.20864 -1.12552e-18 0)
(7.20369 -1.12439e-18 0)
(7.19871 -1.12302e-18 0)
(7.19371 -1.12139e-18 0)
(7.18869 -1.11951e-18 0)
(7.18365 -1.11735e-18 0)
(7.17859 -1.11492e-18 0)
(7.17351 -1.11219e-18 0)
(7.16841 -1.10916e-18 0)
(7.16329 -1.10581e-18 0)
(7.15815 -1.10213e-18 0)
(7.15299 -1.09811e-18 0)
(7.14781 -1.09373e-18 0)
(7.14261 -1.08897e-18 0)
(7.1374 -1.08381e-18 0)
(7.13216 -1.07823e-18 0)
(7.1269 -1.0722e-18 0)
(7.12162 -1.06574e-18 0)
(7.11632 -1.05882e-18 0)
(7.11101 -1.0514e-18 0)
(7.10567 -1.04343e-18 0)
(7.10031 -1.03488e-18 0)
(7.09494 -1.02566e-18 0)
(7.08954 -1.01577e-18 0)
(7.08413 -1.00511e-18 0)
(7.07869 -9.93598e-19 0)
(7.07324 -9.81167e-19 0)
(7.06776 -9.67752e-19 0)
(7.06227 -9.53224e-19 0)
(7.05676 -9.37497e-19 0)
(7.05122 -9.20483e-19 0)
(7.04567 -9.02089e-19 0)
(7.0401 -8.82171e-19 0)
(7.03451 -8.60691e-19 0)
(7.0289 -8.37179e-19 0)
(7.02327 -8.16759e-19 0)
(7.01762 -8.46226e-19 0)
(7.01195 -8.76445e-19 0)
(7.00627 -8.58383e-19 0)
(7.00056 -8.38863e-19 0)
(6.99483 -8.23154e-19 0)
(6.98909 -8.10882e-19 0)
(6.98332 -8.02038e-19 0)
(6.97753 -7.96563e-19 0)
(6.97173 -7.94115e-19 0)
(6.96591 -8.00235e-19 0)
(6.96006 -7.94437e-19 0)
(6.9542 -7.92312e-19 0)
(6.94832 -8.09642e-19 0)
(6.94241 -8.2261e-19 0)
(6.93649 -8.4071e-19 0)
(6.93055 -8.56207e-19 0)
(6.92459 -8.70352e-19 0)
(6.91861 -8.84528e-19 0)
(6.9126 -8.91253e-19 0)
(6.90658 -8.97484e-19 0)
(6.90054 -9.0284e-19 0)
(6.89448 -9.07451e-19 0)
(6.8884 -9.11418e-19 0)
(6.8823 -9.14897e-19 0)
(6.87618 -9.18042e-19 0)
(6.87004 -9.21003e-19 0)
(6.86388 -9.23923e-19 0)
(6.8577 -9.26935e-19 0)
(6.8515 -9.30164e-19 0)
(6.84528 -9.33784e-19 0)
(6.83904 -9.37979e-19 0)
(6.83278 -9.42953e-19 0)
(6.8265 -9.48956e-19 0)
(6.8202 -9.56308e-19 0)
(6.81388 -9.65436e-19 0)
(6.80754 -9.76928e-19 0)
(6.80117 -9.91585e-19 0)
(6.79479 -1.01034e-18 0)
(6.78839 -1.0343e-18 0)
(6.78196 -1.04975e-18 0)
(6.77552 -1.06556e-18 0)
(6.76905 -1.08731e-18 0)
(6.76256 -1.10127e-18 0)
(6.75605 -1.11165e-18 0)
(6.74952 -1.11915e-18 0)
(6.74297 -1.12456e-18 0)
(6.7364 -1.12844e-18 0)
(6.72981 -1.13121e-18 0)
(6.72319 -1.13314e-18 0)
(6.71656 -1.13444e-18 0)
(6.7099 -1.1353e-18 0)
(6.70322 -1.13584e-18 0)
(6.69652 -1.13612e-18 0)
(6.68979 -1.13622e-18 0)
(6.68305 -1.13614e-18 0)
(6.67628 -1.13593e-18 0)
(6.66949 -1.13562e-18 0)
(6.66268 -1.13524e-18 0)
(6.65584 -1.13482e-18 0)
(6.64898 -1.13438e-18 0)
(6.6421 -1.13392e-18 0)
(6.6352 -1.13345e-18 0)
(6.62828 -1.13298e-18 0)
(6.62133 -1.13252e-18 0)
(6.61435 -1.13207e-18 0)
(6.60736 -1.13161e-18 0)
(6.60034 -1.13114e-18 0)
(6.5933 -1.13064e-18 0)
(6.58623 -1.13011e-18 0)
(6.57914 -1.1295e-18 0)
(6.57203 -1.1288e-18 0)
(6.56489 -1.12798e-18 0)
(6.55773 -1.12705e-18 0)
(6.55054 -1.12596e-18 0)
(6.54333 -1.12469e-18 0)
(6.53609 -1.12318e-18 0)
(6.52883 -1.12137e-18 0)
(6.52154 -1.11927e-18 0)
(6.51423 -1.11681e-18 0)
(6.50689 -1.11391e-18 0)
(6.49953 -1.11057e-18 0)
(6.49214 -1.10669e-18 0)
(6.48472 -1.10221e-18 0)
(6.47728 -1.09706e-18 0)
(6.46981 -1.09117e-18 0)
(6.46232 -1.08447e-18 0)
(6.4548 -1.07687e-18 0)
(6.44725 -1.06828e-18 0)
(6.43967 -1.05861e-18 0)
(6.43207 -1.04776e-18 0)
(6.42444 -1.03561e-18 0)
(6.41678 -1.02207e-18 0)
(6.40909 -1.00705e-18 0)
(6.40138 -9.90403e-19 0)
(6.39363 -9.72035e-19 0)
(6.38586 -9.51845e-19 0)
(6.37806 -9.29675e-19 0)
(6.37023 -9.0542e-19 0)
(6.36236 -8.78971e-19 0)
(6.35447 -8.50223e-19 0)
(6.34655 -8.18674e-19 0)
(6.3386 -7.89622e-19 0)
(6.33062 -8.0648e-19 0)
(6.32261 -8.23214e-19 0)
(6.31456 -7.93736e-19 0)
(6.30649 -7.61485e-19 0)
(6.29838 -7.31753e-19 0)
(6.29024 -7.04037e-19 0)
(6.28207 -6.78231e-19 0)
(6.27386 -6.54229e-19 0)
(6.26562 -6.31924e-19 0)
(6.25735 -6.1121e-19 0)
(6.24905 -5.91926e-19 0)
(6.24071 -5.73965e-19 0)
(6.23233 -5.57226e-19 0)
(6.22393 -5.41611e-19 0)
(6.21548 -5.26971e-19 0)
(6.207 -5.13216e-19 0)
(6.19849 -5.00264e-19 0)
(6.18994 -4.87982e-19 0)
(6.18135 -4.76297e-19 0)
(6.17272 -4.65088e-19 0)
(6.16406 -4.54295e-19 0)
(6.15536 -4.43806e-19 0)
(6.14662 -4.33571e-19 0)
(6.13785 -4.23492e-19 0)
(6.12903 -4.1353e-19 0)
(6.12017 -4.03598e-19 0)
(6.11128 -3.93677e-19 0)
(6.10234 -3.83708e-19 0)
(6.09337 -3.73707e-19 0)
(6.08435 -3.6366e-19 0)
(6.07529 -3.53652e-19 0)
(6.06618 -3.43827e-19 0)
(6.05704 -3.34357e-19 0)
(6.04785 -3.25662e-19 0)
(6.03862 -3.1829e-19 0)
(6.02934 -3.11673e-19 0)
(6.02002 -3.04085e-19 0)
(6.01065 -2.95688e-19 0)
(6.00123 -2.91361e-19 0)
(5.99177 -2.99808e-19 0)
(5.98227 -3.05658e-19 0)
(5.97271 -2.96382e-19 0)
(5.9631 -2.83624e-19 0)
(5.95345 -2.71388e-19 0)
(5.94375 -2.58017e-19 0)
(5.93399 -2.42044e-19 0)
(5.92419 -2.40202e-19 0)
(5.91433 -2.53361e-19 0)
(5.90442 -2.53241e-19 0)
(5.89446 -2.66612e-19 0)
(5.88444 -2.82152e-19 0)
(5.87437 -2.69801e-19 0)
(5.86424 -2.55044e-19 0)
(5.85405 -2.42114e-19 0)
(5.84381 -2.30306e-19 0)
(5.83351 -2.19279e-19 0)
(5.82316 -2.08662e-19 0)
(5.81274 -1.98111e-19 0)
(5.80226 -1.87294e-19 0)
(5.79172 -1.75805e-19 0)
(5.78112 -1.63124e-19 0)
(5.77046 -1.48471e-19 0)
(5.75973 -1.36614e-19 0)
(5.74893 -1.26823e-19 0)
(5.73807 -1.17086e-19 0)
(5.72714 -1.20659e-19 0)
(5.71615 -1.34769e-19 0)
(5.70508 -1.35368e-19 0)
(5.69395 -1.65981e-19 0)
(5.68274 -1.97364e-19 0)
(5.67146 -1.98343e-19 0)
(5.66011 -2.11314e-19 0)
(5.64868 -2.28863e-19 0)
(5.63718 -2.32707e-19 0)
(5.62559 -2.36257e-19 0)
(5.61393 -2.37855e-19 0)
(5.60219 -2.20865e-19 0)
(5.59037 -2.08163e-19 0)
(5.57846 -2.00444e-19 0)
(5.56647 -1.9749e-19 0)
(5.5544 -1.97687e-19 0)
(5.54223 -1.99306e-19 0)
(5.52998 -2.04744e-19 0)
(5.51764 -1.94114e-19 0)
(5.50521 -1.82536e-19 0)
(5.49268 -1.85522e-19 0)
(5.48005 -1.84389e-19 0)
(5.46733 -1.8451e-19 0)
(5.45451 -1.85683e-19 0)
(5.44159 -1.86395e-19 0)
(5.42857 -1.86746e-19 0)
(5.41544 -1.86755e-19 0)
(5.4022 -1.86368e-19 0)
(5.38886 -1.85542e-19 0)
(5.3754 -1.84245e-19 0)
(5.36183 -1.82454e-19 0)
(5.34815 -1.80153e-19 0)
(5.33434 -1.77333e-19 0)
(5.32042 -1.7399e-19 0)
(5.30637 -1.70124e-19 0)
(5.2922 -1.65733e-19 0)
(5.2779 -1.60815e-19 0)
(5.26347 -1.55361e-19 0)
(5.2489 -1.49361e-19 0)
(5.2342 -1.42795e-19 0)
(5.21936 -1.35638e-19 0)
(5.20438 -1.27852e-19 0)
(5.18924 -1.19385e-19 0)
(5.17397 -1.1017e-19 0)
(5.15853 -1.00112e-19 0)
(5.14294 -8.90897e-20 0)
(5.12719 -7.70366e-20 0)
(5.11128 -6.37649e-20 0)
(5.0952 -4.91441e-20 0)
(5.07895 -3.26462e-20 0)
(5.06252 -1.85034e-20 0)
(5.04591 -1.70271e-20 0)
(5.02911 -1.54168e-20 0)
(5.01213 -9.09805e-22 0)
(4.99495 1.64279e-20 0)
(4.97757 3.08865e-20 0)
(4.95999 4.1498e-20 0)
(4.94219 4.98732e-20 0)
(4.92418 5.76117e-20 0)
(4.90594 6.46951e-20 0)
(4.88748 7.12693e-20 0)
(4.86878 7.74524e-20 0)
(4.84984 8.32353e-20 0)
(4.83065 8.86903e-20 0)
(4.8112 9.38698e-20 0)
(4.79149 9.88049e-20 0)
(4.7715 1.03502e-19 0)
(4.75124 1.07938e-19 0)
(4.73068 1.1205e-19 0)
(4.70982 1.1575e-19 0)
(4.68866 1.19155e-19 0)
(4.66717 1.22154e-19 0)
(4.64536 1.24916e-19 0)
(4.6232 1.27487e-19 0)
(4.60069 1.30361e-19 0)
(4.57781 1.28645e-19 0)
(4.55456 1.11178e-19 0)
(4.53091 9.24647e-20 0)
(4.50685 8.76099e-20 0)
(4.48237 8.59929e-20 0)
(4.45744 8.24872e-20 0)
(4.43206 7.73759e-20 0)
(4.4062 7.06996e-20 0)
(4.37985 6.28666e-20 0)
(4.35297 5.11621e-20 0)
(4.32556 3.84292e-20 0)
(4.29758 2.75723e-20 0)
(4.26901 2.02225e-20 0)
(4.23982 1.64465e-20 0)
(4.20998 1.26219e-20 0)
(4.17947 1.05971e-20 0)
(4.14824 1.18735e-20 0)
(4.11625 1.66291e-20 0)
(4.08348 2.43462e-20 0)
(4.04988 2.91798e-20 0)
(4.01539 2.23748e-20 0)
(3.97997 1.52386e-20 0)
(3.94356 1.97934e-20 0)
(3.9061 2.76272e-20 0)
(3.86753 3.42801e-20 0)
(3.82776 4.02925e-20 0)
(3.78673 4.617e-20 0)
(3.74433 5.24218e-20 0)
(3.70048 5.95625e-20 0)
(3.65505 6.45412e-20 0)
(3.60792 5.95948e-20 0)
(3.55895 5.52087e-20 0)
(3.50797 6.14465e-20 0)
(3.45482 7.0213e-20 0)
(3.39926 7.35173e-20 0)
(3.34107 8.00624e-20 0)
(3.27997 8.39373e-20 0)
(3.21561 7.99558e-20 0)
(3.14761 7.85544e-20 0)
(3.0755 7.56887e-20 0)
(2.99872 7.10549e-20 0)
(2.91655 6.62147e-20 0)
(2.82815 6.08544e-20 0)
(2.73241 5.37305e-20 0)
(2.62789 3.97724e-20 0)
(2.51271 3.26322e-20 0)
(2.38426 3.25651e-20 0)
(2.23888 2.52333e-20 0)
(2.07111 1.87611e-20 0)
(1.87246 1.29055e-20 0)
(1.62888 7.42702e-21 0)
(1.31627 2.96009e-21 0)
(0.898004 -1.03565e-21 0)
(0.357376 3.78217e-22 0)
)
;

boundaryField
{
    top_wall
    {
        type            noSlip;
    }
    inlet
    {
        type            cyclic;
    }
    bot_wall
    {
        type            noSlip;
    }
    outlet
    {
        type            cyclic;
    }
    frontAndBack
    {
        type            empty;
    }
}


// ************************************************************************* //
