/*--------------------------------*- C++ -*----------------------------------*\
| =========                 |                                                 |
| \\      /  F ield         | OpenFOAM: The Open Source CFD Toolbox           |
|  \\    /   O peration     | Version:  2312                                  |
|   \\  /    A nd           | Website:  www.openfoam.com                      |
|    \\/     M anipulation  |                                                 |
\*---------------------------------------------------------------------------*/
FoamFile
{
    version     2.0;
    format      ascii;
    arch        "LSB;label=32;scalar=64";
    class       volScalarField;
    location    "13.67";
    object      k;
}
// * * * * * * * * * * * * * * * * * * * * * * * * * * * * * * * * * * * * * //

dimensions      [0 2 -2 0 0 0 0];

internalField   nonuniform List<scalar> 
1000
(
0.00162477
0.00433946
0.00502735
0.00524302
0.00534149
0.00539523
0.00542718
0.00544675
0.00545854
0.00546509
0.0054679
0.00546796
0.00546591
0.0054622
0.00545716
0.00545104
0.00544401
0.00543621
0.00542776
0.00541874
0.00540923
0.00539927
0.00538893
0.00537823
0.00536721
0.0053559
0.00534433
0.00533251
0.00532047
0.00530821
0.00529575
0.00528311
0.0052703
0.00525732
0.00524418
0.0052309
0.00521747
0.00520391
0.00519022
0.00517641
0.00516247
0.00514843
0.00513427
0.00512001
0.00510565
0.0050912
0.00507664
0.005062
0.00504727
0.00503245
0.00501755
0.00500257
0.00498751
0.00497238
0.00495717
0.00494189
0.00492655
0.00491114
0.00489566
0.00488013
0.00486453
0.00484887
0.00483316
0.00481739
0.00480157
0.00478569
0.00476977
0.0047538
0.00473778
0.00472171
0.00470561
0.00468946
0.00467326
0.00465703
0.00464076
0.00462446
0.00460812
0.00459174
0.00457533
0.00455889
0.00454242
0.00452592
0.0045094
0.00449285
0.00447627
0.00445966
0.00444304
0.00442639
0.00440973
0.00439304
0.00437633
0.00435961
0.00434287
0.00432612
0.00430935
0.00429257
0.00427578
0.00425898
0.00424216
0.00422534
0.00420851
0.00419168
0.00417484
0.00415799
0.00414114
0.00412429
0.00410743
0.00409058
0.00407373
0.00405687
0.00404002
0.00402317
0.00400633
0.00398949
0.00397265
0.00395583
0.00393901
0.0039222
0.00390539
0.0038886
0.00387182
0.00385506
0.0038383
0.00382156
0.00380483
0.00378812
0.00377143
0.00375475
0.00373809
0.00372145
0.00370483
0.00368823
0.00367165
0.00365509
0.00363856
0.00362205
0.00360556
0.0035891
0.00357267
0.00355627
0.00353989
0.00352354
0.00350722
0.00349093
0.00347468
0.00345845
0.00344226
0.0034261
0.00340998
0.00339389
0.00337783
0.00336182
0.00334584
0.0033299
0.003314
0.00329814
0.00328232
0.00326654
0.00325081
0.00323511
0.00321946
0.00320386
0.0031883
0.00317279
0.00315732
0.00314191
0.00312654
0.00311122
0.00309595
0.00308073
0.00306556
0.00305044
0.00303538
0.00302037
0.00300542
0.00299052
0.00297567
0.00296089
0.00294616
0.00293149
0.00291687
0.00290232
0.00288783
0.00287339
0.00285902
0.00284472
0.00283047
0.00281629
0.00280217
0.00278812
0.00277413
0.00276021
0.00274636
0.00273257
0.00271885
0.0027052
0.00269162
0.00267811
0.00266467
0.00265131
0.00263801
0.00262479
0.00261164
0.00259856
0.00258556
0.00257263
0.00255977
0.002547
0.00253429
0.00252167
0.00250912
0.00249665
0.00248426
0.00247195
0.00245972
0.00244756
0.00243549
0.00242349
0.00241158
0.00239975
0.002388
0.00237633
0.00236475
0.00235325
0.00234183
0.00233049
0.00231924
0.00230807
0.00229698
0.00228598
0.00227507
0.00226424
0.00225349
0.00224283
0.00223226
0.00222177
0.00221137
0.00220105
0.00219083
0.00218068
0.00217063
0.00216066
0.00215077
0.00214098
0.00213127
0.00212165
0.00211211
0.00210266
0.0020933
0.00208403
0.00207484
0.00206574
0.00205673
0.0020478
0.00203896
0.00203021
0.00202154
0.00201296
0.00200446
0.00199605
0.00198773
0.00197949
0.00197134
0.00196328
0.0019553
0.0019474
0.00193959
0.00193186
0.00192422
0.00191666
0.00190918
0.00190179
0.00189448
0.00188725
0.0018801
0.00187304
0.00186606
0.00185916
0.00185233
0.00184559
0.00183893
0.00183235
0.00182585
0.00181943
0.00181308
0.00180681
0.00180062
0.00179451
0.00178847
0.00178251
0.00177662
0.00177081
0.00176508
0.00175941
0.00175382
0.0017483
0.00174286
0.00173749
0.00173218
0.00172695
0.00172179
0.0017167
0.00171167
0.00170672
0.00170183
0.00169701
0.00169226
0.00168757
0.00168295
0.00167839
0.0016739
0.00166947
0.0016651
0.0016608
0.00165655
0.00165237
0.00164825
0.00164419
0.00164019
0.00163625
0.00163237
0.00162854
0.00162477
0.00162106
0.0016174
0.0016138
0.00161026
0.00160676
0.00160332
0.00159994
0.0015966
0.00159332
0.00159009
0.00158691
0.00158378
0.00158069
0.00157766
0.00157467
0.00157174
0.00156885
0.001566
0.0015632
0.00156045
0.00155774
0.00155507
0.00155245
0.00154987
0.00154734
0.00154484
0.00154239
0.00153998
0.0015376
0.00153527
0.00153298
0.00153072
0.0015285
0.00152633
0.00152418
0.00152208
0.00152001
0.00151797
0.00151597
0.00151401
0.00151208
0.00151018
0.00150831
0.00150648
0.00150468
0.00150291
0.00150118
0.00149947
0.00149779
0.00149615
0.00149453
0.00149294
0.00149138
0.00148985
0.00148835
0.00148687
0.00148542
0.001484
0.0014826
0.00148123
0.00147988
0.00147856
0.00147726
0.00147599
0.00147474
0.00147351
0.0014723
0.00147112
0.00146996
0.00146883
0.00146771
0.00146662
0.00146554
0.00146449
0.00146346
0.00146244
0.00146145
0.00146047
0.00145952
0.00145858
0.00145766
0.00145676
0.00145588
0.00145501
0.00145417
0.00145333
0.00145252
0.00145172
0.00145094
0.00145017
0.00144942
0.00144868
0.00144796
0.00144725
0.00144656
0.00144588
0.00144522
0.00144457
0.00144393
0.00144331
0.0014427
0.0014421
0.00144152
0.00144095
0.00144039
0.00143984
0.00143931
0.00143878
0.00143827
0.00143777
0.00143728
0.0014368
0.00143633
0.00143588
0.00143543
0.00143499
0.00143457
0.00143415
0.00143374
0.00143335
0.00143296
0.00143258
0.00143221
0.00143185
0.0014315
0.00143116
0.00143083
0.0014305
0.00143019
0.00142988
0.00142958
0.00142929
0.001429
0.00142873
0.00142846
0.0014282
0.00142795
0.0014277
0.00142746
0.00142723
0.00142701
0.00142679
0.00142658
0.00142638
0.00142618
0.00142599
0.00142581
0.00142564
0.00142547
0.0014253
0.00142515
0.001425
0.00142485
0.00142472
0.00142458
0.00142446
0.00142434
0.00142423
0.00142412
0.00142402
0.00142392
0.00142383
0.00142375
0.00142367
0.00142359
0.00142353
0.00142347
0.00142341
0.00142336
0.00142332
0.00142328
0.00142324
0.00142321
0.00142319
0.00142318
0.00142316
0.00142316
0.00142316
0.00142316
0.00142317
0.00142319
0.00142321
0.00142324
0.00142327
0.00142331
0.00142336
0.0014234
0.00142346
0.00142352
0.00142359
0.00142366
0.00142374
0.00142382
0.00142391
0.00142401
0.00142411
0.00142422
0.00142433
0.00142445
0.00142458
0.00142471
0.00142485
0.00142499
0.00142514
0.0014253
0.00142546
0.00142563
0.00142581
0.00142599
0.00142618
0.00142637
0.00142658
0.00142679
0.001427
0.00142723
0.00142746
0.0014277
0.00142794
0.00142819
0.00142845
0.00142872
0.001429
0.00142928
0.00142957
0.00142987
0.00143018
0.0014305
0.00143082
0.00143116
0.0014315
0.00143185
0.00143221
0.00143258
0.00143296
0.00143334
0.00143374
0.00143415
0.00143456
0.00143499
0.00143543
0.00143587
0.00143633
0.0014368
0.00143728
0.00143777
0.00143827
0.00143878
0.0014393
0.00143984
0.00144039
0.00144094
0.00144152
0.0014421
0.0014427
0.00144331
0.00144393
0.00144457
0.00144522
0.00144588
0.00144656
0.00144725
0.00144796
0.00144868
0.00144941
0.00145016
0.00145093
0.00145171
0.00145251
0.00145333
0.00145416
0.00145501
0.00145587
0.00145676
0.00145766
0.00145858
0.00145951
0.00146047
0.00146144
0.00146244
0.00146345
0.00146448
0.00146553
0.00146661
0.0014677
0.00146882
0.00146995
0.00147111
0.00147229
0.0014735
0.00147472
0.00147597
0.00147725
0.00147855
0.00147987
0.00148121
0.00148259
0.00148398
0.00148541
0.00148686
0.00148833
0.00148984
0.00149137
0.00149293
0.00149452
0.00149613
0.00149778
0.00149946
0.00150116
0.0015029
0.00150467
0.00150647
0.0015083
0.00151017
0.00151206
0.001514
0.00151596
0.00151796
0.00152
0.00152207
0.00152417
0.00152631
0.00152849
0.00153071
0.00153297
0.00153526
0.00153759
0.00153997
0.00154238
0.00154483
0.00154733
0.00154987
0.00155244
0.00155507
0.00155773
0.00156044
0.0015632
0.00156599
0.00156884
0.00157173
0.00157467
0.00157766
0.00158069
0.00158377
0.0015869
0.00159008
0.00159332
0.0015966
0.00159993
0.00160332
0.00160676
0.00161025
0.0016138
0.0016174
0.00162106
0.00162477
0.00162854
0.00163237
0.00163625
0.00164019
0.00164419
0.00164825
0.00165237
0.00165656
0.0016608
0.0016651
0.00166947
0.0016739
0.00167839
0.00168295
0.00168757
0.00169226
0.00169701
0.00170183
0.00170672
0.00171168
0.0017167
0.00172179
0.00172695
0.00173219
0.00173749
0.00174286
0.00174831
0.00175383
0.00175942
0.00176508
0.00177082
0.00177663
0.00178252
0.00178848
0.00179451
0.00180063
0.00180682
0.00181309
0.00181943
0.00182586
0.00183236
0.00183894
0.0018456
0.00185234
0.00185916
0.00186606
0.00187304
0.00188011
0.00188725
0.00189448
0.00190179
0.00190919
0.00191666
0.00192422
0.00193186
0.00193959
0.0019474
0.0019553
0.00196328
0.00197135
0.0019795
0.00198774
0.00199606
0.00200447
0.00201296
0.00202154
0.00203021
0.00203896
0.0020478
0.00205673
0.00206574
0.00207484
0.00208403
0.00209331
0.00210267
0.00211212
0.00212165
0.00213127
0.00214098
0.00215078
0.00216066
0.00217063
0.00218069
0.00219083
0.00220106
0.00221137
0.00222178
0.00223226
0.00224284
0.0022535
0.00226424
0.00227507
0.00228599
0.00229699
0.00230807
0.00231924
0.00233049
0.00234183
0.00235325
0.00236475
0.00237634
0.002388
0.00239975
0.00241159
0.0024235
0.00243549
0.00244757
0.00245972
0.00247195
0.00248427
0.00249666
0.00250913
0.00252167
0.0025343
0.002547
0.00255978
0.00257263
0.00258556
0.00259856
0.00261164
0.00262479
0.00263801
0.00265131
0.00266468
0.00267812
0.00269162
0.0027052
0.00271885
0.00273257
0.00274636
0.00276021
0.00277413
0.00278812
0.00280217
0.00281629
0.00283047
0.00284472
0.00285903
0.0028734
0.00288783
0.00290232
0.00291687
0.00293149
0.00294616
0.00296089
0.00297567
0.00299052
0.00300542
0.00302037
0.00303538
0.00305044
0.00306556
0.00308073
0.00309595
0.00311122
0.00312654
0.00314191
0.00315732
0.00317279
0.0031883
0.00320386
0.00321946
0.00323511
0.00325081
0.00326654
0.00328232
0.00329814
0.003314
0.0033299
0.00334584
0.00336182
0.00337783
0.00339389
0.00340997
0.0034261
0.00344226
0.00345845
0.00347467
0.00349093
0.00350722
0.00352354
0.00353989
0.00355627
0.00357267
0.0035891
0.00360556
0.00362205
0.00363856
0.00365509
0.00367165
0.00368823
0.00370483
0.00372145
0.00373809
0.00375475
0.00377143
0.00378812
0.00380483
0.00382156
0.0038383
0.00385505
0.00387182
0.0038886
0.00390539
0.0039222
0.00393901
0.00395583
0.00397265
0.00398949
0.00400633
0.00402317
0.00404002
0.00405687
0.00407372
0.00409058
0.00410743
0.00412429
0.00414114
0.00415799
0.00417484
0.00419168
0.00420851
0.00422534
0.00424216
0.00425898
0.00427578
0.00429257
0.00430935
0.00432612
0.00434287
0.00435961
0.00437633
0.00439304
0.00440972
0.00442639
0.00444304
0.00445966
0.00447627
0.00449284
0.0045094
0.00452592
0.00454242
0.00455889
0.00457533
0.00459174
0.00460812
0.00462446
0.00464076
0.00465703
0.00467326
0.00468945
0.0047056
0.00472171
0.00473778
0.0047538
0.00476977
0.00478569
0.00480157
0.00481739
0.00483316
0.00484887
0.00486453
0.00488012
0.00489566
0.00491114
0.00492655
0.00494189
0.00495717
0.00497237
0.00498751
0.00500257
0.00501755
0.00503245
0.00504726
0.005062
0.00507664
0.00509119
0.00510565
0.00512001
0.00513427
0.00514843
0.00516247
0.0051764
0.00519022
0.00520391
0.00521747
0.00523089
0.00524418
0.00525732
0.0052703
0.00528311
0.00529575
0.00530821
0.00532047
0.00533251
0.00534433
0.0053559
0.00536721
0.00537823
0.00538893
0.00539927
0.00540923
0.00541874
0.00542776
0.00543621
0.00544401
0.00545104
0.00545716
0.0054622
0.00546591
0.00546796
0.0054679
0.00546508
0.00545854
0.00544675
0.00542718
0.00539523
0.00534148
0.00524302
0.00502735
0.00433945
0.00162477
)
;

boundaryField
{
    top_wall
    {
        type            kLowReWallFunction;
        value           uniform 0.000377286;
    }
    inlet
    {
        type            cyclic;
    }
    bot_wall
    {
        type            kLowReWallFunction;
        value           uniform 0.000377286;
    }
    outlet
    {
        type            cyclic;
    }
    frontAndBack
    {
        type            empty;
    }
}


// ************************************************************************* //
