/*--------------------------------*- C++ -*----------------------------------*\
| =========                 |                                                 |
| \\      /  F ield         | OpenFOAM: The Open Source CFD Toolbox           |
|  \\    /   O peration     | Version:  2312                                  |
|   \\  /    A nd           | Website:  www.openfoam.com                      |
|    \\/     M anipulation  |                                                 |
\*---------------------------------------------------------------------------*/
FoamFile
{
    version     2.0;
    format      ascii;
    arch        "LSB;label=32;scalar=64";
    class       volScalarField;
    location    "13.67";
    object      nut;
}
// * * * * * * * * * * * * * * * * * * * * * * * * * * * * * * * * * * * * * //

dimensions      [0 2 -1 0 0 0 0];

internalField   nonuniform List<scalar> 
1000
(
2.44438e-06
2.09452e-05
4.70998e-05
7.59306e-05
0.000106099
0.000136951
0.000168157
0.000199531
0.000230963
0.000262382
0.000293738
0.000324998
0.000356136
0.000387132
0.000417972
0.000448644
0.000479136
0.000509441
0.000539552
0.000569463
0.000599169
0.000628664
0.000657945
0.000687009
0.000715851
0.00074447
0.000772862
0.000801025
0.000828956
0.000856654
0.000884117
0.000911343
0.000938331
0.000965078
0.000991584
0.00101785
0.00104387
0.00106964
0.00109517
0.00112045
0.00114548
0.00117026
0.00119479
0.00121908
0.00124311
0.00126689
0.00129041
0.00131368
0.0013367
0.00135947
0.00138198
0.00140423
0.00142623
0.00144798
0.00146946
0.00149069
0.00151167
0.00153239
0.00155285
0.00157305
0.00159299
0.00161268
0.00163211
0.00165128
0.0016702
0.00168886
0.00170726
0.0017254
0.00174328
0.00176091
0.00177828
0.0017954
0.00181225
0.00182885
0.0018452
0.00186129
0.00187712
0.0018927
0.00190803
0.0019231
0.00193791
0.00195247
0.00196679
0.00198084
0.00199465
0.00200821
0.00202151
0.00203457
0.00204738
0.00205994
0.00207225
0.00208431
0.00209613
0.00210771
0.00211904
0.00213013
0.00214097
0.00215158
0.00216194
0.00217207
0.00218195
0.00219161
0.00220102
0.0022102
0.00221915
0.00222786
0.00223635
0.0022446
0.00225263
0.00226043
0.002268
0.00227535
0.00228248
0.00228938
0.00229607
0.00230254
0.00230879
0.00231483
0.00232065
0.00232626
0.00233166
0.00233685
0.00234184
0.00234662
0.0023512
0.00235557
0.00235975
0.00236373
0.00236751
0.0023711
0.00237449
0.0023777
0.00238072
0.00238355
0.00238619
0.00238866
0.00239094
0.00239305
0.00239498
0.00239674
0.00239832
0.00239973
0.00240098
0.00240206
0.00240298
0.00240373
0.00240433
0.00240477
0.00240506
0.00240519
0.00240517
0.00240501
0.0024047
0.00240424
0.00240365
0.00240291
0.00240204
0.00240104
0.0023999
0.00239864
0.00239724
0.00239573
0.00239409
0.00239232
0.00239045
0.00238845
0.00238634
0.00238412
0.0023818
0.00237936
0.00237683
0.00237419
0.00237145
0.00236861
0.00236568
0.00236266
0.00235954
0.00235634
0.00235305
0.00234968
0.00234623
0.0023427
0.00233909
0.00233541
0.00233166
0.00232784
0.00232394
0.00231999
0.00231597
0.00231188
0.00230774
0.00230354
0.00229929
0.00229498
0.00229062
0.00228622
0.00228176
0.00227726
0.00227272
0.00226814
0.00226352
0.00225886
0.00225417
0.00224944
0.00224468
0.00223989
0.00223508
0.00223024
0.00222537
0.00222048
0.00221557
0.00221064
0.0022057
0.00220073
0.00219576
0.00219077
0.00218577
0.00218076
0.00217574
0.00217072
0.00216569
0.00216066
0.00215563
0.00215059
0.00214556
0.00214052
0.0021355
0.00213047
0.00212545
0.00212044
0.00211544
0.00211044
0.00210546
0.00210049
0.00209553
0.00209058
0.00208565
0.00208073
0.00207584
0.00207095
0.00206609
0.00206125
0.00205643
0.00205163
0.00204685
0.00204209
0.00203736
0.00203266
0.00202797
0.00202332
0.00201869
0.00201409
0.00200951
0.00200497
0.00200045
0.00199596
0.00199151
0.00198708
0.00198269
0.00197832
0.00197399
0.00196969
0.00196543
0.00196119
0.00195699
0.00195283
0.0019487
0.0019446
0.00194054
0.00193652
0.00193253
0.00192857
0.00192465
0.00192077
0.00191693
0.00191312
0.00190934
0.00190561
0.00190191
0.00189824
0.00189462
0.00189103
0.00188748
0.00188396
0.00188049
0.00187705
0.00187364
0.00187028
0.00186695
0.00186366
0.0018604
0.00185718
0.001854
0.00185086
0.00184775
0.00184468
0.00184165
0.00183865
0.00183569
0.00183277
0.00182988
0.00182702
0.00182421
0.00182142
0.00181868
0.00181596
0.00181329
0.00181065
0.00180804
0.00180546
0.00180292
0.00180042
0.00179795
0.00179551
0.0017931
0.00179073
0.00178839
0.00178608
0.00178381
0.00178157
0.00177935
0.00177717
0.00177502
0.00177291
0.00177082
0.00176876
0.00176673
0.00176473
0.00176277
0.00176083
0.00175892
0.00175703
0.00175518
0.00175335
0.00175156
0.00174979
0.00174804
0.00174633
0.00174464
0.00174297
0.00174133
0.00173972
0.00173813
0.00173657
0.00173504
0.00173352
0.00173204
0.00173057
0.00172913
0.00172771
0.00172632
0.00172495
0.0017236
0.00172227
0.00172097
0.00171968
0.00171842
0.00171718
0.00171596
0.00171476
0.00171358
0.00171242
0.00171128
0.00171016
0.00170906
0.00170798
0.00170692
0.00170587
0.00170484
0.00170383
0.00170284
0.00170187
0.00170091
0.00169997
0.00169905
0.00169814
0.00169725
0.00169638
0.00169552
0.00169468
0.00169385
0.00169303
0.00169223
0.00169145
0.00169068
0.00168993
0.00168918
0.00168846
0.00168774
0.00168704
0.00168635
0.00168568
0.00168501
0.00168436
0.00168373
0.0016831
0.00168249
0.00168188
0.00168129
0.00168071
0.00168015
0.00167959
0.00167904
0.00167851
0.00167798
0.00167747
0.00167696
0.00167647
0.00167598
0.00167551
0.00167504
0.00167458
0.00167414
0.0016737
0.00167327
0.00167285
0.00167243
0.00167203
0.00167163
0.00167125
0.00167087
0.0016705
0.00167013
0.00166978
0.00166943
0.00166909
0.00166875
0.00166843
0.00166811
0.0016678
0.00166749
0.00166719
0.0016669
0.00166661
0.00166633
0.00166606
0.00166579
0.00166553
0.00166528
0.00166503
0.00166479
0.00166455
0.00166432
0.00166409
0.00166387
0.00166365
0.00166344
0.00166324
0.00166304
0.00166285
0.00166266
0.00166247
0.00166229
0.00166212
0.00166195
0.00166178
0.00166162
0.00166146
0.00166131
0.00166116
0.00166102
0.00166088
0.00166075
0.00166062
0.00166049
0.00166037
0.00166025
0.00166013
0.00166002
0.00165992
0.00165981
0.00165971
0.00165962
0.00165953
0.00165944
0.00165936
0.00165928
0.0016592
0.00165913
0.00165906
0.00165899
0.00165893
0.00165887
0.00165881
0.00165876
0.00165871
0.00165866
0.00165862
0.00165858
0.00165855
0.00165851
0.00165849
0.00165846
0.00165844
0.00165842
0.0016584
0.00165839
0.00165838
0.00165837
0.00165837
0.00165837
0.00165837
0.00165838
0.00165839
0.0016584
0.00165842
0.00165844
0.00165846
0.00165848
0.00165851
0.00165855
0.00165858
0.00165862
0.00165866
0.00165871
0.00165876
0.00165881
0.00165887
0.00165893
0.00165899
0.00165905
0.00165912
0.0016592
0.00165927
0.00165936
0.00165944
0.00165953
0.00165962
0.00165971
0.00165981
0.00165992
0.00166002
0.00166013
0.00166025
0.00166037
0.00166049
0.00166061
0.00166074
0.00166088
0.00166102
0.00166116
0.00166131
0.00166146
0.00166162
0.00166178
0.00166195
0.00166212
0.00166229
0.00166247
0.00166266
0.00166284
0.00166304
0.00166324
0.00166344
0.00166365
0.00166387
0.00166409
0.00166432
0.00166455
0.00166479
0.00166503
0.00166528
0.00166553
0.00166579
0.00166606
0.00166633
0.00166661
0.0016669
0.00166719
0.00166749
0.0016678
0.00166811
0.00166843
0.00166875
0.00166909
0.00166943
0.00166978
0.00167013
0.0016705
0.00167087
0.00167125
0.00167163
0.00167203
0.00167243
0.00167285
0.00167327
0.0016737
0.00167413
0.00167458
0.00167504
0.00167551
0.00167598
0.00167647
0.00167696
0.00167747
0.00167798
0.00167851
0.00167904
0.00167959
0.00168015
0.00168071
0.00168129
0.00168188
0.00168249
0.0016831
0.00168373
0.00168436
0.00168501
0.00168568
0.00168635
0.00168704
0.00168774
0.00168845
0.00168918
0.00168992
0.00169068
0.00169145
0.00169223
0.00169303
0.00169385
0.00169467
0.00169552
0.00169638
0.00169725
0.00169814
0.00169905
0.00169997
0.00170091
0.00170187
0.00170284
0.00170383
0.00170484
0.00170587
0.00170691
0.00170798
0.00170906
0.00171016
0.00171128
0.00171242
0.00171358
0.00171476
0.00171596
0.00171718
0.00171842
0.00171968
0.00172097
0.00172227
0.0017236
0.00172495
0.00172632
0.00172771
0.00172913
0.00173057
0.00173203
0.00173352
0.00173504
0.00173657
0.00173813
0.00173972
0.00174133
0.00174297
0.00174463
0.00174632
0.00174804
0.00174978
0.00175156
0.00175335
0.00175518
0.00175703
0.00175891
0.00176083
0.00176276
0.00176473
0.00176673
0.00176876
0.00177082
0.0017729
0.00177502
0.00177717
0.00177935
0.00178156
0.00178381
0.00178608
0.00178839
0.00179073
0.0017931
0.00179551
0.00179795
0.00180042
0.00180292
0.00180546
0.00180804
0.00181064
0.00181329
0.00181596
0.00181867
0.00182142
0.0018242
0.00182702
0.00182987
0.00183276
0.00183569
0.00183865
0.00184165
0.00184468
0.00184775
0.00185086
0.001854
0.00185718
0.0018604
0.00186366
0.00186695
0.00187028
0.00187364
0.00187704
0.00188048
0.00188396
0.00188748
0.00189103
0.00189462
0.00189824
0.0019019
0.0019056
0.00190934
0.00191311
0.00191692
0.00192077
0.00192465
0.00192857
0.00193253
0.00193652
0.00194054
0.0019446
0.0019487
0.00195283
0.00195699
0.00196119
0.00196542
0.00196969
0.00197399
0.00197832
0.00198268
0.00198708
0.0019915
0.00199596
0.00200045
0.00200496
0.00200951
0.00201408
0.00201868
0.00202331
0.00202797
0.00203265
0.00203736
0.00204209
0.00204685
0.00205162
0.00205642
0.00206125
0.00206609
0.00207095
0.00207583
0.00208073
0.00208564
0.00209058
0.00209552
0.00210048
0.00210545
0.00211044
0.00211543
0.00212044
0.00212545
0.00213047
0.00213549
0.00214052
0.00214555
0.00215059
0.00215562
0.00216066
0.00216569
0.00217072
0.00217574
0.00218076
0.00218577
0.00219077
0.00219575
0.00220073
0.00220569
0.00221064
0.00221557
0.00222048
0.00222536
0.00223023
0.00223507
0.00223989
0.00224468
0.00224944
0.00225416
0.00225886
0.00226351
0.00226814
0.00227272
0.00227726
0.00228176
0.00228621
0.00229062
0.00229498
0.00229928
0.00230354
0.00230774
0.00231188
0.00231596
0.00231998
0.00232394
0.00232783
0.00233165
0.00233541
0.00233909
0.0023427
0.00234623
0.00234968
0.00235305
0.00235634
0.00235954
0.00236265
0.00236568
0.00236861
0.00237144
0.00237418
0.00237682
0.00237936
0.00238179
0.00238412
0.00238634
0.00238845
0.00239044
0.00239232
0.00239408
0.00239572
0.00239724
0.00239863
0.0023999
0.00240103
0.00240204
0.00240291
0.00240364
0.00240424
0.00240469
0.002405
0.00240517
0.00240518
0.00240505
0.00240476
0.00240432
0.00240373
0.00240297
0.00240205
0.00240097
0.00239973
0.00239831
0.00239673
0.00239497
0.00239305
0.00239094
0.00238865
0.00238619
0.00238354
0.00238071
0.0023777
0.00237449
0.00237109
0.00236751
0.00236372
0.00235974
0.00235557
0.00235119
0.00234662
0.00234183
0.00233685
0.00233166
0.00232626
0.00232065
0.00231482
0.00230879
0.00230254
0.00229607
0.00228938
0.00228248
0.00227535
0.002268
0.00226042
0.00225263
0.0022446
0.00223634
0.00222786
0.00221915
0.0022102
0.00220102
0.0021916
0.00218195
0.00217207
0.00216194
0.00215158
0.00214097
0.00213012
0.00211904
0.00210771
0.00209613
0.00208431
0.00207225
0.00205993
0.00204738
0.00203457
0.00202151
0.00200821
0.00199465
0.00198084
0.00196678
0.00195247
0.00193791
0.00192309
0.00190802
0.0018927
0.00187712
0.00186129
0.0018452
0.00182885
0.00181225
0.00179539
0.00177828
0.00176091
0.00174328
0.0017254
0.00170726
0.00168886
0.0016702
0.00165128
0.00163211
0.00161268
0.00159299
0.00157305
0.00155285
0.00153239
0.00151167
0.00149069
0.00146946
0.00144798
0.00142623
0.00140423
0.00138198
0.00135947
0.0013367
0.00131368
0.00129041
0.00126689
0.00124311
0.00121908
0.00119479
0.00117026
0.00114548
0.00112045
0.00109517
0.00106964
0.00104387
0.00101785
0.000991583
0.000965078
0.00093833
0.000911343
0.000884117
0.000856654
0.000828956
0.000801024
0.000772862
0.00074447
0.000715851
0.000687009
0.000657945
0.000628664
0.000599169
0.000569463
0.000539552
0.000509441
0.000479136
0.000448644
0.000417972
0.000387132
0.000356136
0.000324998
0.000293738
0.000262382
0.000230963
0.000199531
0.000168157
0.000136951
0.000106099
7.59306e-05
4.70997e-05
2.09451e-05
2.44438e-06
)
;

boundaryField
{
    top_wall
    {
        type            nutLowReWallFunction;
        value           uniform 0;
    }
    inlet
    {
        type            cyclic;
    }
    bot_wall
    {
        type            nutLowReWallFunction;
        value           uniform 0;
    }
    outlet
    {
        type            cyclic;
    }
    frontAndBack
    {
        type            empty;
    }
}


// ************************************************************************* //
