# Wall shear stress
# Time          	patch           	min             	max             
0.5             	top_wall	(-3.00848246e-03 -4.52282052e-29 0.00000000e+00)	(-3.00848246e-03 -4.52282052e-29 0.00000000e+00)
0.5             	bot_wall	(-3.00848042e-03 1.61698256e-20 0.00000000e+00)	(-3.00848042e-03 1.61698256e-20 0.00000000e+00)
1               	top_wall	(-2.65045582e-03 -2.09124021e-28 0.00000000e+00)	(-2.65045582e-03 -2.09124021e-28 0.00000000e+00)
1               	bot_wall	(-2.65045346e-03 1.13924964e-20 0.00000000e+00)	(-2.65045346e-03 1.13924964e-20 0.00000000e+00)
1.5             	top_wall	(-2.45023922e-03 -3.29048526e-28 0.00000000e+00)	(-2.45023922e-03 -3.29048526e-28 0.00000000e+00)
1.5             	bot_wall	(-2.45023712e-03 -3.06652737e-20 0.00000000e+00)	(-2.45023712e-03 -3.06652737e-20 0.00000000e+00)
2               	top_wall	(-2.31699377e-03 -3.42808733e-28 0.00000000e+00)	(-2.31699377e-03 -3.42808733e-28 0.00000000e+00)
2               	bot_wall	(-2.31699210e-03 -6.22403427e-21 0.00000000e+00)	(-2.31699210e-03 -6.22403427e-21 0.00000000e+00)
2.5             	top_wall	(-2.21972612e-03 -5.05526963e-28 0.00000000e+00)	(-2.21972612e-03 -5.05526963e-28 0.00000000e+00)
2.5             	bot_wall	(-2.21972491e-03 -1.30941245e-20 0.00000000e+00)	(-2.21972491e-03 -1.30941245e-20 0.00000000e+00)
3               	top_wall	(-2.14462659e-03 -6.86909520e-28 0.00000000e+00)	(-2.14462659e-03 -6.86909520e-28 0.00000000e+00)
3               	bot_wall	(-2.14462581e-03 1.26245805e-20 0.00000000e+00)	(-2.14462581e-03 1.26245805e-20 0.00000000e+00)
3.5             	top_wall	(-2.08443743e-03 -7.06276306e-28 0.00000000e+00)	(-2.08443743e-03 -7.06276306e-28 0.00000000e+00)
3.5             	bot_wall	(-2.08443699e-03 1.84224700e-24 0.00000000e+00)	(-2.08443699e-03 1.84224700e-24 0.00000000e+00)
4               	top_wall	(-2.03490375e-03 -8.41975051e-28 0.00000000e+00)	(-2.03490375e-03 -8.41975051e-28 0.00000000e+00)
4               	bot_wall	(-2.03490357e-03 3.83231027e-21 0.00000000e+00)	(-2.03490357e-03 3.83231027e-21 0.00000000e+00)
4.5             	top_wall	(-1.99333041e-03 -1.04164268e-27 0.00000000e+00)	(-1.99333041e-03 -1.04164268e-27 0.00000000e+00)
4.5             	bot_wall	(-1.99333042e-03 2.52569960e-20 0.00000000e+00)	(-1.99333042e-03 2.52569960e-20 0.00000000e+00)
5               	top_wall	(-1.95790901e-03 -1.18761564e-27 0.00000000e+00)	(-1.95790901e-03 -1.18761564e-27 0.00000000e+00)
5               	bot_wall	(-1.95790914e-03 1.98650471e-20 0.00000000e+00)	(-1.95790914e-03 1.98650471e-20 0.00000000e+00)
5.5             	top_wall	(-1.92737093e-03 -1.00842889e-27 0.00000000e+00)	(-1.92737093e-03 -1.00842889e-27 0.00000000e+00)
5.5             	bot_wall	(-1.92737114e-03 1.91392447e-20 0.00000000e+00)	(-1.92737114e-03 1.91392447e-20 0.00000000e+00)
6               	top_wall	(-1.90079395e-03 -2.63844385e-28 0.00000000e+00)	(-1.90079395e-03 -2.63844385e-28 0.00000000e+00)
6               	bot_wall	(-1.90079421e-03 5.09298956e-20 0.00000000e+00)	(-1.90079421e-03 5.09298956e-20 0.00000000e+00)
6.5             	top_wall	(-1.87748823e-03 2.28051037e-27 0.00000000e+00)	(-1.87748823e-03 2.28051037e-27 0.00000000e+00)
6.5             	bot_wall	(-1.87748852e-03 6.09939081e-22 0.00000000e+00)	(-1.87748852e-03 6.09939081e-22 0.00000000e+00)
7               	top_wall	(-1.85692504e-03 8.14959572e-27 0.00000000e+00)	(-1.85692504e-03 8.14959572e-27 0.00000000e+00)
7               	bot_wall	(-1.85692535e-03 3.99152926e-20 0.00000000e+00)	(-1.85692535e-03 3.99152926e-20 0.00000000e+00)
7.5             	top_wall	(-1.83869116e-03 1.91335873e-26 0.00000000e+00)	(-1.83869116e-03 1.91335873e-26 0.00000000e+00)
7.5             	bot_wall	(-1.83869148e-03 -2.19942160e-20 0.00000000e+00)	(-1.83869148e-03 -2.19942160e-20 0.00000000e+00)
8               	top_wall	(-1.82245771e-03 3.88119736e-26 0.00000000e+00)	(-1.82245771e-03 3.88119736e-26 0.00000000e+00)
8               	bot_wall	(-1.82245802e-03 4.73686667e-22 0.00000000e+00)	(-1.82245802e-03 4.73686667e-22 0.00000000e+00)
8.5             	top_wall	(-1.80795936e-03 7.13564016e-26 0.00000000e+00)	(-1.80795936e-03 7.13564016e-26 0.00000000e+00)
8.5             	bot_wall	(-1.80795967e-03 1.17453356e-20 0.00000000e+00)	(-1.80795967e-03 1.17453356e-20 0.00000000e+00)
9               	top_wall	(-1.79497896e-03 1.23145636e-25 0.00000000e+00)	(-1.79497896e-03 1.23145636e-25 0.00000000e+00)
9               	bot_wall	(-1.79497927e-03 1.70119685e-20 0.00000000e+00)	(-1.79497927e-03 1.70119685e-20 0.00000000e+00)
9.5             	top_wall	(-1.78333698e-03 2.01697992e-25 0.00000000e+00)	(-1.78333698e-03 2.01697992e-25 0.00000000e+00)
9.5             	bot_wall	(-1.78333730e-03 1.56954529e-20 0.00000000e+00)	(-1.78333730e-03 1.56954529e-20 0.00000000e+00)
10              	top_wall	(-1.77288332e-03 3.15843529e-25 0.00000000e+00)	(-1.77288332e-03 3.15843529e-25 0.00000000e+00)
10              	bot_wall	(-1.77288364e-03 1.75259835e-20 0.00000000e+00)	(-1.77288364e-03 1.75259835e-20 0.00000000e+00)
10.5            	top_wall	(-1.76349133e-03 4.76092910e-25 0.00000000e+00)	(-1.76349133e-03 4.76092910e-25 0.00000000e+00)
10.5            	bot_wall	(-1.76349164e-03 3.41479959e-20 0.00000000e+00)	(-1.76349164e-03 3.41479959e-20 0.00000000e+00)
11              	top_wall	(-1.75505331e-03 6.94540689e-25 0.00000000e+00)	(-1.75505331e-03 6.94540689e-25 0.00000000e+00)
11              	bot_wall	(-1.75505363e-03 1.77789750e-20 0.00000000e+00)	(-1.75505363e-03 1.77789750e-20 0.00000000e+00)
11.5            	top_wall	(-1.74747681e-03 9.84450925e-25 0.00000000e+00)	(-1.74747681e-03 9.84450925e-25 0.00000000e+00)
11.5            	bot_wall	(-1.74747714e-03 -4.20289712e-21 0.00000000e+00)	(-1.74747714e-03 -4.20289712e-21 0.00000000e+00)
12              	top_wall	(-1.74068207e-03 1.35873896e-24 0.00000000e+00)	(-1.74068207e-03 1.35873896e-24 0.00000000e+00)
12              	bot_wall	(-1.74068240e-03 3.25166743e-20 0.00000000e+00)	(-1.74068240e-03 3.25166743e-20 0.00000000e+00)
12.5            	top_wall	(-1.73459968e-03 1.82990659e-24 0.00000000e+00)	(-1.73459968e-03 1.82990659e-24 0.00000000e+00)
12.5            	bot_wall	(-1.73460002e-03 -4.76538331e-21 0.00000000e+00)	(-1.73460002e-03 -4.76538331e-21 0.00000000e+00)
13              	top_wall	(-1.72916884e-03 2.41004975e-24 0.00000000e+00)	(-1.72916884e-03 2.41004975e-24 0.00000000e+00)
13              	bot_wall	(-1.72916918e-03 -4.76046359e-22 0.00000000e+00)	(-1.72916918e-03 -4.76046359e-22 0.00000000e+00)
13.5            	top_wall	(-1.72433603e-03 3.10962415e-24 0.00000000e+00)	(-1.72433603e-03 3.10962415e-24 0.00000000e+00)
13.5            	bot_wall	(-1.72433638e-03 6.69255542e-21 0.00000000e+00)	(-1.72433638e-03 6.69255542e-21 0.00000000e+00)
