/*--------------------------------*- C++ -*----------------------------------*\
| =========                 |                                                 |
| \\      /  F ield         | OpenFOAM: The Open Source CFD Toolbox           |
|  \\    /   O peration     | Version:  2312                                  |
|   \\  /    A nd           | Website:  www.openfoam.com                      |
|    \\/     M anipulation  |                                                 |
\*---------------------------------------------------------------------------*/
FoamFile
{
    version     2.0;
    format      ascii;
    arch        "LSB;label=32;scalar=64";
    class       volScalarField;
    location    "10.42";
    object      k;
}
// * * * * * * * * * * * * * * * * * * * * * * * * * * * * * * * * * * * * * //

dimensions      [0 2 -2 0 0 0 0];

internalField   nonuniform List<scalar> 
500
(
0.00357785
0.00509584
0.0300808
0.0831028
0.137486
0.178051
0.206667
0.226826
0.241201
0.251631
0.259333
0.26511
0.269501
0.272871
0.275472
0.277481
0.27902
0.280179
0.281028
0.28162
0.281997
0.282194
0.282238
0.282152
0.281953
0.281657
0.281276
0.280823
0.280305
0.27973
0.279106
0.278437
0.277729
0.276986
0.276212
0.275411
0.274584
0.273735
0.272866
0.271978
0.271075
0.270157
0.269225
0.268282
0.267328
0.266364
0.265391
0.264411
0.263423
0.262429
0.261429
0.260423
0.259413
0.258399
0.257381
0.256359
0.255335
0.254307
0.253278
0.252246
0.251213
0.250177
0.249141
0.248103
0.247065
0.246025
0.244985
0.243945
0.242904
0.241862
0.240821
0.23978
0.238739
0.237698
0.236657
0.235617
0.234577
0.233538
0.232499
0.231462
0.230424
0.229388
0.228352
0.227318
0.226284
0.225251
0.22422
0.223189
0.222159
0.221131
0.220104
0.219078
0.218054
0.21703
0.216009
0.214988
0.213969
0.212952
0.211935
0.210921
0.209908
0.208897
0.207887
0.206879
0.205873
0.204868
0.203866
0.202865
0.201866
0.200868
0.199873
0.19888
0.197889
0.1969
0.195913
0.194928
0.193946
0.192965
0.191987
0.191012
0.190038
0.189067
0.188099
0.187133
0.18617
0.18521
0.184252
0.183297
0.182344
0.181395
0.180449
0.179505
0.178565
0.177628
0.176694
0.175763
0.174836
0.173912
0.172991
0.172074
0.171161
0.170251
0.169345
0.168443
0.167545
0.166651
0.16576
0.164874
0.163993
0.163115
0.162242
0.161373
0.160509
0.15965
0.158795
0.157945
0.1571
0.15626
0.155425
0.154595
0.153771
0.152951
0.152138
0.151329
0.150527
0.14973
0.148939
0.148154
0.147374
0.146601
0.145834
0.145074
0.14432
0.143572
0.142831
0.142096
0.141369
0.140648
0.139934
0.139227
0.138527
0.137835
0.13715
0.136473
0.135803
0.13514
0.134486
0.133839
0.1332
0.132569
0.131947
0.131333
0.130726
0.130129
0.12954
0.128959
0.128388
0.127825
0.12727
0.126725
0.126189
0.125662
0.125145
0.124636
0.124137
0.123648
0.123168
0.122698
0.122237
0.121787
0.121346
0.120915
0.120494
0.120084
0.119683
0.119293
0.118913
0.118544
0.118185
0.117837
0.117499
0.117172
0.116855
0.116549
0.116255
0.115971
0.115698
0.115436
0.115185
0.114945
0.114716
0.114498
0.114292
0.114097
0.113913
0.11374
0.113579
0.113429
0.113291
0.113164
0.113048
0.112944
0.112852
0.112771
0.112702
0.112644
0.112597
0.112563
0.112539
0.112528
0.112528
0.112539
0.112563
0.112597
0.112644
0.112702
0.112771
0.112852
0.112944
0.113048
0.113164
0.113291
0.113429
0.113579
0.11374
0.113913
0.114097
0.114292
0.114498
0.114716
0.114945
0.115185
0.115436
0.115698
0.115971
0.116255
0.116549
0.116855
0.117172
0.117499
0.117837
0.118185
0.118544
0.118913
0.119293
0.119683
0.120084
0.120494
0.120915
0.121346
0.121787
0.122237
0.122698
0.123168
0.123648
0.124137
0.124636
0.125145
0.125662
0.126189
0.126725
0.127271
0.127825
0.128388
0.128959
0.12954
0.130129
0.130727
0.131333
0.131947
0.13257
0.1332
0.133839
0.134486
0.13514
0.135803
0.136473
0.13715
0.137835
0.138527
0.139227
0.139934
0.140648
0.141369
0.142096
0.142831
0.143572
0.14432
0.145074
0.145835
0.146601
0.147375
0.148154
0.148939
0.14973
0.150527
0.15133
0.152138
0.152952
0.153771
0.154595
0.155425
0.15626
0.1571
0.157945
0.158795
0.15965
0.160509
0.161373
0.162242
0.163115
0.163993
0.164874
0.16576
0.166651
0.167545
0.168443
0.169345
0.170251
0.171161
0.172074
0.172991
0.173912
0.174836
0.175763
0.176694
0.177628
0.178565
0.179505
0.180449
0.181395
0.182344
0.183297
0.184252
0.18521
0.18617
0.187133
0.188099
0.189067
0.190038
0.191012
0.191987
0.192965
0.193946
0.194928
0.195913
0.1969
0.197889
0.19888
0.199873
0.200869
0.201866
0.202865
0.203866
0.204868
0.205873
0.206879
0.207887
0.208897
0.209908
0.210921
0.211936
0.212952
0.213969
0.214988
0.216009
0.21703
0.218054
0.219078
0.220104
0.221131
0.222159
0.223189
0.22422
0.225251
0.226284
0.227318
0.228352
0.229388
0.230424
0.231462
0.2325
0.233538
0.234577
0.235617
0.236657
0.237698
0.238739
0.23978
0.240821
0.241862
0.242904
0.243945
0.244985
0.246025
0.247065
0.248103
0.249141
0.250177
0.251213
0.252246
0.253278
0.254307
0.255335
0.256359
0.257381
0.258399
0.259413
0.260423
0.261429
0.262429
0.263423
0.264411
0.265391
0.266364
0.267328
0.268282
0.269225
0.270157
0.271075
0.271978
0.272866
0.273735
0.274584
0.275411
0.276212
0.276986
0.277729
0.278437
0.279106
0.27973
0.280305
0.280823
0.281276
0.281657
0.281953
0.282152
0.282238
0.282194
0.281997
0.28162
0.281028
0.280179
0.27902
0.277481
0.275472
0.272871
0.269501
0.26511
0.259333
0.251631
0.241201
0.226826
0.206667
0.178051
0.137486
0.0831028
0.0300808
0.00509584
0.00357785
)
;

boundaryField
{
    top_wall
    {
        type            kLowReWallFunction;
        value           uniform 1.68723e-06;
    }
    inlet
    {
        type            cyclic;
    }
    bot_wall
    {
        type            kLowReWallFunction;
        value           uniform 1.68723e-06;
    }
    outlet
    {
        type            cyclic;
    }
    frontAndBack
    {
        type            empty;
    }
}


// ************************************************************************* //
