/*--------------------------------*- C++ -*----------------------------------*\
| =========                 |                                                 |
| \\      /  F ield         | OpenFOAM: The Open Source CFD Toolbox           |
|  \\    /   O peration     | Version:  2312                                  |
|   \\  /    A nd           | Website:  www.openfoam.com                      |
|    \\/     M anipulation  |                                                 |
\*---------------------------------------------------------------------------*/
FoamFile
{
    version     2.0;
    format      ascii;
    arch        "LSB;label=32;scalar=64";
    class       volScalarField;
    location    "10.42";
    object      nut;
}
// * * * * * * * * * * * * * * * * * * * * * * * * * * * * * * * * * * * * * //

dimensions      [0 2 -1 0 0 0 0];

internalField   nonuniform List<scalar> 
500
(
7.37961e-09
5.95815e-08
9.23778e-07
4.44193e-06
1.06555e-05
1.80166e-05
2.62163e-05
3.51507e-05
4.46339e-05
5.4519e-05
6.46883e-05
7.50509e-05
8.55254e-05
9.60072e-05
0.000106313
0.000116516
0.000126702
0.000136861
0.000146984
0.000157064
0.000167095
0.000177073
0.000186994
0.000196856
0.000206655
0.00021639
0.00022606
0.000235663
0.000245198
0.000254664
0.000264062
0.00027339
0.000282648
0.000291836
0.000300954
0.000310001
0.000318979
0.000327886
0.000336723
0.00034549
0.000354187
0.000362815
0.000371373
0.000379862
0.000388282
0.000396634
0.000404917
0.000413133
0.00042128
0.00042936
0.000437373
0.000445319
0.000453199
0.000461013
0.000468761
0.000476443
0.00048406
0.000491612
0.0004991
0.000506523
0.000513883
0.000521178
0.000528411
0.000535581
0.000542688
0.000549733
0.000556715
0.000563637
0.000570496
0.000577295
0.000584033
0.00059071
0.000597328
0.000603885
0.000610383
0.000616822
0.000623202
0.000629523
0.000635786
0.000641991
0.000648138
0.000654228
0.000660261
0.000666237
0.000672156
0.000678019
0.000683826
0.000689578
0.000695274
0.000700915
0.000706502
0.000712034
0.000717512
0.000722936
0.000728306
0.000733623
0.000738887
0.000744099
0.000749258
0.000754365
0.00075942
0.000764424
0.000769376
0.000774278
0.000779129
0.000783929
0.00078868
0.00079338
0.000798032
0.000802634
0.000807187
0.000811692
0.000816148
0.000820557
0.000824918
0.000829231
0.000833497
0.000837717
0.00084189
0.000846017
0.000850098
0.000854133
0.000858123
0.000862068
0.000865968
0.000869824
0.000873636
0.000877404
0.000881128
0.000884809
0.000888447
0.000892042
0.000895595
0.000899106
0.000902575
0.000906003
0.000909389
0.000912735
0.00091604
0.000919304
0.000922528
0.000925713
0.000928858
0.000931963
0.00093503
0.000938058
0.000941048
0.000943999
0.000946913
0.000949789
0.000952628
0.00095543
0.000958195
0.000960923
0.000963615
0.000966271
0.000968892
0.000971477
0.000974027
0.000976541
0.000979021
0.000981467
0.000983878
0.000986256
0.0009886
0.00099091
0.000993187
0.000995431
0.000997642
0.00099982
0.00100197
0.00100408
0.00100616
0.00100821
0.00101023
0.00101222
0.00101418
0.0010161
0.001018
0.00101986
0.0010217
0.0010235
0.00102528
0.00102702
0.00102874
0.00103042
0.00103208
0.00103371
0.00103531
0.00103688
0.00103842
0.00103993
0.00104142
0.00104287
0.0010443
0.00104571
0.00104708
0.00104843
0.00104975
0.00105104
0.0010523
0.00105354
0.00105475
0.00105594
0.00105709
0.00105822
0.00105933
0.00106041
0.00106146
0.00106249
0.00106349
0.00106446
0.00106541
0.00106633
0.00106723
0.0010681
0.00106894
0.00106976
0.00107056
0.00107133
0.00107207
0.00107279
0.00107348
0.00107415
0.00107479
0.00107541
0.001076
0.00107657
0.00107711
0.00107763
0.00107812
0.00107859
0.00107904
0.00107946
0.00107985
0.00108022
0.00108056
0.00108088
0.00108118
0.00108145
0.00108169
0.00108191
0.00108211
0.00108228
0.00108243
0.00108255
0.00108265
0.00108272
0.00108277
0.0010828
0.0010828
0.00108277
0.00108272
0.00108265
0.00108255
0.00108243
0.00108228
0.00108211
0.00108191
0.00108169
0.00108145
0.00108118
0.00108088
0.00108056
0.00108022
0.00107985
0.00107946
0.00107904
0.00107859
0.00107812
0.00107763
0.00107711
0.00107657
0.001076
0.00107541
0.00107479
0.00107415
0.00107348
0.00107279
0.00107207
0.00107133
0.00107056
0.00106976
0.00106894
0.0010681
0.00106723
0.00106633
0.00106541
0.00106446
0.00106349
0.00106249
0.00106146
0.00106041
0.00105933
0.00105822
0.00105709
0.00105594
0.00105475
0.00105354
0.0010523
0.00105104
0.00104975
0.00104843
0.00104708
0.00104571
0.0010443
0.00104287
0.00104142
0.00103993
0.00103842
0.00103688
0.00103531
0.00103371
0.00103208
0.00103042
0.00102874
0.00102702
0.00102528
0.0010235
0.0010217
0.00101986
0.001018
0.0010161
0.00101418
0.00101222
0.00101023
0.00100821
0.00100616
0.00100408
0.00100197
0.000999821
0.000997642
0.000995431
0.000993187
0.00099091
0.0009886
0.000986256
0.000983879
0.000981468
0.000979022
0.000976542
0.000974027
0.000971477
0.000968892
0.000966272
0.000963616
0.000960923
0.000958195
0.00095543
0.000952628
0.00094979
0.000946914
0.000944
0.000941048
0.000938059
0.000935031
0.000931964
0.000928858
0.000925713
0.000922529
0.000919304
0.00091604
0.000912735
0.00090939
0.000906003
0.000902576
0.000899107
0.000895596
0.000892043
0.000888447
0.000884809
0.000881128
0.000877404
0.000873636
0.000869824
0.000865969
0.000862068
0.000858123
0.000854133
0.000850098
0.000846017
0.00084189
0.000837717
0.000833498
0.000829231
0.000824918
0.000820557
0.000816148
0.000811692
0.000807187
0.000802634
0.000798032
0.000793381
0.00078868
0.000783929
0.000779129
0.000774278
0.000769376
0.000764424
0.00075942
0.000754365
0.000749258
0.000744099
0.000738888
0.000733623
0.000728306
0.000722936
0.000717512
0.000712034
0.000706502
0.000700916
0.000695274
0.000689578
0.000683827
0.000678019
0.000672156
0.000666237
0.000660261
0.000654228
0.000648138
0.000641991
0.000635786
0.000629523
0.000623202
0.000616822
0.000610383
0.000603885
0.000597328
0.00059071
0.000584033
0.000577295
0.000570496
0.000563637
0.000556716
0.000549733
0.000542688
0.000535581
0.000528411
0.000521179
0.000513883
0.000506523
0.0004991
0.000491612
0.00048406
0.000476443
0.000468761
0.000461013
0.000453199
0.00044532
0.000437373
0.00042936
0.00042128
0.000413133
0.000404917
0.000396634
0.000388282
0.000379862
0.000371373
0.000362815
0.000354187
0.00034549
0.000336723
0.000327886
0.000318979
0.000310001
0.000300954
0.000291836
0.000282648
0.00027339
0.000264062
0.000254664
0.000245198
0.000235663
0.00022606
0.00021639
0.000206655
0.000196856
0.000186994
0.000177073
0.000167095
0.000157064
0.000146984
0.000136861
0.000126702
0.000116516
0.000106313
9.60072e-05
8.55254e-05
7.50509e-05
6.46883e-05
5.4519e-05
4.46339e-05
3.51507e-05
2.62163e-05
1.80166e-05
1.06555e-05
4.44193e-06
9.23778e-07
5.95815e-08
7.3796e-09
)
;

boundaryField
{
    top_wall
    {
        type            nutLowReWallFunction;
        value           uniform 0;
    }
    inlet
    {
        type            cyclic;
    }
    bot_wall
    {
        type            nutLowReWallFunction;
        value           uniform 0;
    }
    outlet
    {
        type            cyclic;
    }
    frontAndBack
    {
        type            empty;
    }
}


// ************************************************************************* //
