/*--------------------------------*- C++ -*----------------------------------*\
| =========                 |                                                 |
| \\      /  F ield         | OpenFOAM: The Open Source CFD Toolbox           |
|  \\    /   O peration     | Version:  2312                                  |
|   \\  /    A nd           | Website:  www.openfoam.com                      |
|    \\/     M anipulation  |                                                 |
\*---------------------------------------------------------------------------*/
FoamFile
{
    version     2.0;
    format      ascii;
    arch        "LSB;label=32;scalar=64";
    class       volVectorField;
    location    "10.42";
    object      U;
}
// * * * * * * * * * * * * * * * * * * * * * * * * * * * * * * * * * * * * * //

dimensions      [0 1 -1 0 0 0 0];

internalField   nonuniform List<vector> 
500
(
(0.340022 -2.6106e-18 0)
(1.01594 -6.55777e-18 0)
(1.66952 -6.14563e-18 0)
(2.24057 -5.83601e-18 0)
(2.68744 -5.77734e-18 0)
(3.03011 -5.78292e-18 0)
(3.30017 -5.77533e-18 0)
(3.51888 -5.75399e-18 0)
(3.70028 -5.73152e-18 0)
(3.85393 -5.70869e-18 0)
(3.98644 -5.68383e-18 0)
(4.10249 -5.6595e-18 0)
(4.20545 -5.63566e-18 0)
(4.29786 -5.61395e-18 0)
(4.38167 -5.59412e-18 0)
(4.45838 -5.57597e-18 0)
(4.52908 -5.55676e-18 0)
(4.59462 -5.53351e-18 0)
(4.65568 -5.50595e-18 0)
(4.71282 -5.48602e-18 0)
(4.7665 -5.50746e-18 0)
(4.8171 -5.55592e-18 0)
(4.86495 -5.56647e-18 0)
(4.91033 -5.5637e-18 0)
(4.95347 -5.56091e-18 0)
(4.99459 -5.5336e-18 0)
(5.03385 -5.50349e-18 0)
(5.07142 -5.48642e-18 0)
(5.10743 -5.47934e-18 0)
(5.142 -5.48036e-18 0)
(5.17525 -5.48293e-18 0)
(5.20726 -5.48908e-18 0)
(5.23813 -5.51814e-18 0)
(5.26794 -5.54855e-18 0)
(5.29674 -5.55997e-18 0)
(5.32461 -5.5674e-18 0)
(5.35161 -5.58878e-18 0)
(5.37777 -5.63398e-18 0)
(5.40317 -5.67823e-18 0)
(5.42782 -5.70033e-18 0)
(5.45179 -5.71217e-18 0)
(5.4751 -5.72271e-18 0)
(5.49778 -5.73327e-18 0)
(5.51988 -5.74409e-18 0)
(5.54141 -5.75316e-18 0)
(5.56241 -5.76188e-18 0)
(5.5829 -5.77854e-18 0)
(5.6029 -5.80234e-18 0)
(5.62244 -5.82751e-18 0)
(5.64154 -5.84523e-18 0)
(5.6602 -5.85248e-18 0)
(5.67847 -5.86103e-18 0)
(5.69634 -5.88275e-18 0)
(5.71383 -5.90896e-18 0)
(5.73097 -5.91855e-18 0)
(5.74775 -5.91796e-18 0)
(5.76421 -5.93119e-18 0)
(5.78034 -5.95793e-18 0)
(5.79617 -5.97412e-18 0)
(5.81169 -5.97448e-18 0)
(5.82693 -5.97708e-18 0)
(5.84189 -5.99384e-18 0)
(5.85658 -6.00859e-18 0)
(5.87101 -6.01944e-18 0)
(5.88519 -6.02909e-18 0)
(5.89912 -6.04336e-18 0)
(5.91282 -6.06634e-18 0)
(5.92629 -6.07559e-18 0)
(5.93954 -6.08229e-18 0)
(5.95257 -6.08621e-18 0)
(5.9654 -6.07696e-18 0)
(5.97802 -6.07619e-18 0)
(5.99044 -6.08996e-18 0)
(6.00268 -6.09604e-18 0)
(6.01472 -6.09879e-18 0)
(6.02659 -6.10482e-18 0)
(6.03827 -6.10034e-18 0)
(6.04979 -6.10211e-18 0)
(6.06114 -6.10665e-18 0)
(6.07232 -6.10055e-18 0)
(6.08335 -6.10591e-18 0)
(6.09422 -6.12525e-18 0)
(6.10494 -6.14005e-18 0)
(6.11551 -6.15211e-18 0)
(6.12593 -6.15518e-18 0)
(6.13622 -6.14865e-18 0)
(6.14636 -6.15082e-18 0)
(6.15638 -6.16156e-18 0)
(6.16626 -6.16246e-18 0)
(6.17601 -6.15372e-18 0)
(6.18563 -6.15415e-18 0)
(6.19513 -6.15665e-18 0)
(6.20451 -6.15522e-18 0)
(6.21377 -6.15654e-18 0)
(6.22291 -6.1592e-18 0)
(6.23194 -6.1751e-18 0)
(6.24086 -6.21068e-18 0)
(6.24967 -6.24877e-18 0)
(6.25837 -6.26636e-18 0)
(6.26696 -6.26411e-18 0)
(6.27545 -6.25978e-18 0)
(6.28384 -6.26463e-18 0)
(6.29213 -6.27875e-18 0)
(6.30032 -6.29015e-18 0)
(6.30841 -6.2994e-18 0)
(6.31641 -6.31248e-18 0)
(6.32432 -6.33049e-18 0)
(6.33213 -6.33582e-18 0)
(6.33985 -6.25782e-18 0)
(6.34749 -6.17373e-18 0)
(6.35503 -6.16579e-18 0)
(6.3625 -6.16886e-18 0)
(6.36987 -6.16451e-18 0)
(6.37716 -6.16028e-18 0)
(6.38437 -6.1558e-18 0)
(6.3915 -6.14494e-18 0)
(6.39855 -6.12762e-18 0)
(6.40551 -6.10982e-18 0)
(6.41241 -6.09233e-18 0)
(6.41922 -6.0556e-18 0)
(6.42596 -6.08295e-18 0)
(6.43262 -6.10867e-18 0)
(6.43921 -6.06787e-18 0)
(6.44572 -6.04303e-18 0)
(6.45217 -6.01382e-18 0)
(6.45854 -5.98731e-18 0)
(6.46484 -5.96289e-18 0)
(6.47107 -5.93303e-18 0)
(6.47723 -5.90982e-18 0)
(6.48333 -5.89177e-18 0)
(6.48936 -5.87292e-18 0)
(6.49532 -5.83748e-18 0)
(6.50121 -5.78978e-18 0)
(6.50704 -5.74692e-18 0)
(6.51281 -5.72573e-18 0)
(6.51851 -5.73125e-18 0)
(6.52414 -5.73247e-18 0)
(6.52972 -5.69148e-18 0)
(6.53523 -5.65555e-18 0)
(6.54068 -5.67237e-18 0)
(6.54607 -5.70571e-18 0)
(6.5514 -5.7177e-18 0)
(6.55667 -5.63992e-18 0)
(6.56188 -5.56068e-18 0)
(6.56703 -5.56821e-18 0)
(6.57212 -5.59333e-18 0)
(6.57716 -5.6143e-18 0)
(6.58213 -5.63572e-18 0)
(6.58705 -5.64598e-18 0)
(6.59191 -5.61083e-18 0)
(6.59672 -5.57115e-18 0)
(6.60147 -5.57366e-18 0)
(6.60616 -5.58973e-18 0)
(6.6108 -5.60733e-18 0)
(6.61538 -5.62971e-18 0)
(6.61991 -5.65956e-18 0)
(6.62439 -5.70102e-18 0)
(6.62881 -5.74044e-18 0)
(6.63317 -5.71345e-18 0)
(6.63749 -5.60775e-18 0)
(6.64175 -5.5084e-18 0)
(6.64595 -5.4061e-18 0)
(6.65011 -5.29271e-18 0)
(6.65421 -5.2518e-18 0)
(6.65826 -5.26277e-18 0)
(6.66226 -5.20498e-18 0)
(6.66621 -5.12315e-18 0)
(6.6701 -5.0391e-18 0)
(6.67395 -4.97187e-18 0)
(6.67774 -4.96121e-18 0)
(6.68149 -4.94364e-18 0)
(6.68518 -4.90132e-18 0)
(6.68882 -4.86497e-18 0)
(6.69242 -4.85854e-18 0)
(6.69596 -4.84773e-18 0)
(6.69945 -4.9001e-18 0)
(6.7029 -4.94227e-18 0)
(6.70629 -4.86919e-18 0)
(6.70964 -4.80899e-18 0)
(6.71293 -4.71608e-18 0)
(6.71618 -4.65443e-18 0)
(6.71938 -4.63475e-18 0)
(6.72253 -4.60422e-18 0)
(6.72563 -4.61178e-18 0)
(6.72869 -4.56653e-18 0)
(6.73169 -4.5327e-18 0)
(6.73465 -4.53401e-18 0)
(6.73756 -4.52408e-18 0)
(6.74042 -4.49693e-18 0)
(6.74323 -4.54319e-18 0)
(6.746 -4.58672e-18 0)
(6.74872 -4.55195e-18 0)
(6.75139 -4.52224e-18 0)
(6.75401 -4.48813e-18 0)
(6.75659 -4.51685e-18 0)
(6.75912 -4.51578e-18 0)
(6.7616 -4.43915e-18 0)
(6.76403 -4.37944e-18 0)
(6.76642 -4.31919e-18 0)
(6.76876 -4.26211e-18 0)
(6.77106 -4.1984e-18 0)
(6.7733 -4.14687e-18 0)
(6.77551 -4.11558e-18 0)
(6.77766 -4.07796e-18 0)
(6.77977 -4.03768e-18 0)
(6.78183 -3.9788e-18 0)
(6.78384 -3.91631e-18 0)
(6.78581 -3.85741e-18 0)
(6.78773 -3.80515e-18 0)
(6.78961 -3.75588e-18 0)
(6.79144 -3.68519e-18 0)
(6.79322 -3.63332e-18 0)
(6.79496 -3.58723e-18 0)
(6.79665 -3.54292e-18 0)
(6.7983 -3.51177e-18 0)
(6.7999 -3.46178e-18 0)
(6.80145 -3.39602e-18 0)
(6.80295 -3.30117e-18 0)
(6.80442 -3.19882e-18 0)
(6.80583 -3.11744e-18 0)
(6.8072 -3.03931e-18 0)
(6.80852 -2.95568e-18 0)
(6.8098 -2.85509e-18 0)
(6.81103 -2.76799e-18 0)
(6.81222 -2.69186e-18 0)
(6.81336 -2.61882e-18 0)
(6.81445 -2.56123e-18 0)
(6.8155 -2.50267e-18 0)
(6.8165 -2.44232e-18 0)
(6.81746 -2.36348e-18 0)
(6.81837 -2.29612e-18 0)
(6.81924 -2.25733e-18 0)
(6.82006 -2.22462e-18 0)
(6.82083 -2.27242e-18 0)
(6.82156 -2.31006e-18 0)
(6.82224 -2.24956e-18 0)
(6.82288 -2.21169e-18 0)
(6.82347 -2.20771e-18 0)
(6.82402 -2.2721e-18 0)
(6.82452 -2.31687e-18 0)
(6.82498 -2.28348e-18 0)
(6.82539 -2.23619e-18 0)
(6.82575 -2.18358e-18 0)
(6.82607 -2.14963e-18 0)
(6.82634 -2.11704e-18 0)
(6.82657 -2.15915e-18 0)
(6.82675 -2.19054e-18 0)
(6.82689 -2.09557e-18 0)
(6.82698 -2.0012e-18 0)
(6.82703 -1.95209e-18 0)
(6.82703 -1.92216e-18 0)
(6.82698 -1.89216e-18 0)
(6.82689 -1.78891e-18 0)
(6.82675 -1.65521e-18 0)
(6.82657 -1.52589e-18 0)
(6.82634 -1.44471e-18 0)
(6.82607 -1.42976e-18 0)
(6.82575 -1.38024e-18 0)
(6.82539 -1.28063e-18 0)
(6.82498 -1.18051e-18 0)
(6.82452 -1.13002e-18 0)
(6.82402 -1.10769e-18 0)
(6.82347 -1.04794e-18 0)
(6.82288 -9.29079e-19 0)
(6.82224 -8.1297e-19 0)
(6.82156 -7.6158e-19 0)
(6.82083 -7.49234e-19 0)
(6.82006 -7.18846e-19 0)
(6.81924 -6.40182e-19 0)
(6.81837 -5.53614e-19 0)
(6.81746 -4.92769e-19 0)
(6.8165 -4.53617e-19 0)
(6.8155 -4.27365e-19 0)
(6.81445 -3.281e-19 0)
(6.81336 -1.62309e-19 0)
(6.81222 -6.81458e-20 0)
(6.81103 5.23851e-21 0)
(6.8098 6.07076e-20 0)
(6.80852 4.77455e-20 0)
(6.8072 8.87152e-20 0)
(6.80583 1.42433e-19 0)
(6.80442 2.02513e-19 0)
(6.80295 2.47854e-19 0)
(6.80145 2.30978e-19 0)
(6.79989 2.26894e-19 0)
(6.7983 2.58729e-19 0)
(6.79665 3.04598e-19 0)
(6.79496 3.52598e-19 0)
(6.79322 3.91228e-19 0)
(6.79144 3.99635e-19 0)
(6.78961 4.04201e-19 0)
(6.78773 4.15338e-19 0)
(6.78581 4.52505e-19 0)
(6.78384 5.3523e-19 0)
(6.78183 5.92127e-19 0)
(6.77977 5.98331e-19 0)
(6.77766 6.49683e-19 0)
(6.77551 7.21137e-19 0)
(6.7733 7.46421e-19 0)
(6.77106 7.75487e-19 0)
(6.76876 8.14168e-19 0)
(6.76642 8.32685e-19 0)
(6.76403 8.43295e-19 0)
(6.7616 8.52566e-19 0)
(6.75912 8.81685e-19 0)
(6.75659 9.73493e-19 0)
(6.75401 1.04281e-18 0)
(6.75139 1.04319e-18 0)
(6.74872 1.05224e-18 0)
(6.746 1.11642e-18 0)
(6.74323 1.20235e-18 0)
(6.74042 1.18989e-18 0)
(6.73756 1.15745e-18 0)
(6.73465 1.16791e-18 0)
(6.73169 1.16601e-18 0)
(6.72869 1.16613e-18 0)
(6.72563 1.16781e-18 0)
(6.72253 1.16556e-18 0)
(6.71938 1.15318e-18 0)
(6.71618 1.13671e-18 0)
(6.71293 1.1217e-18 0)
(6.70964 1.10753e-18 0)
(6.70629 1.09406e-18 0)
(6.7029 1.08114e-18 0)
(6.69945 1.06864e-18 0)
(6.69596 1.05648e-18 0)
(6.69242 1.04456e-18 0)
(6.68882 1.03279e-18 0)
(6.68518 1.02111e-18 0)
(6.68149 1.00949e-18 0)
(6.67774 9.97906e-19 0)
(6.67395 9.86344e-19 0)
(6.6701 9.748e-19 0)
(6.66621 9.63275e-19 0)
(6.66226 9.51778e-19 0)
(6.65826 9.40315e-19 0)
(6.65421 9.28894e-19 0)
(6.65011 9.17527e-19 0)
(6.64595 9.06226e-19 0)
(6.64175 8.94954e-19 0)
(6.63749 8.83722e-19 0)
(6.63317 8.7254e-19 0)
(6.62881 8.61414e-19 0)
(6.62439 8.50348e-19 0)
(6.61991 8.39345e-19 0)
(6.61538 8.28406e-19 0)
(6.6108 8.17531e-19 0)
(6.60616 8.0672e-19 0)
(6.60147 7.95972e-19 0)
(6.59672 7.85283e-19 0)
(6.59191 7.74652e-19 0)
(6.58705 7.64076e-19 0)
(6.58213 7.53553e-19 0)
(6.57716 7.43077e-19 0)
(6.57212 7.32703e-19 0)
(6.56703 7.22427e-19 0)
(6.56188 7.12247e-19 0)
(6.55667 7.02158e-19 0)
(6.5514 6.9216e-19 0)
(6.54607 6.82249e-19 0)
(6.54068 6.72424e-19 0)
(6.53523 6.62681e-19 0)
(6.52972 6.53021e-19 0)
(6.52414 6.4344e-19 0)
(6.51851 6.33937e-19 0)
(6.51281 6.24511e-19 0)
(6.50704 6.15161e-19 0)
(6.50121 6.05885e-19 0)
(6.49532 5.96683e-19 0)
(6.48936 5.87552e-19 0)
(6.48333 5.78493e-19 0)
(6.47723 5.69505e-19 0)
(6.47107 5.60587e-19 0)
(6.46484 5.51737e-19 0)
(6.45854 5.42956e-19 0)
(6.45217 5.34243e-19 0)
(6.44572 5.25597e-19 0)
(6.43921 5.17019e-19 0)
(6.43262 5.08506e-19 0)
(6.42596 5.0006e-19 0)
(6.41922 4.91679e-19 0)
(6.4124 4.83364e-19 0)
(6.40551 4.75114e-19 0)
(6.39855 4.6693e-19 0)
(6.3915 4.5881e-19 0)
(6.38437 4.50756e-19 0)
(6.37716 4.42766e-19 0)
(6.36987 4.34842e-19 0)
(6.36249 4.26983e-19 0)
(6.35503 4.19189e-19 0)
(6.34749 4.11461e-19 0)
(6.33985 4.03798e-19 0)
(6.33213 3.96201e-19 0)
(6.32432 3.88671e-19 0)
(6.31641 3.81207e-19 0)
(6.30841 3.73809e-19 0)
(6.30032 3.66479e-19 0)
(6.29213 3.59217e-19 0)
(6.28384 3.52022e-19 0)
(6.27545 3.44895e-19 0)
(6.26696 3.37837e-19 0)
(6.25837 3.30848e-19 0)
(6.24967 3.23928e-19 0)
(6.24086 3.17078e-19 0)
(6.23194 3.10297e-19 0)
(6.22291 3.03587e-19 0)
(6.21377 2.96948e-19 0)
(6.20451 2.9038e-19 0)
(6.19513 2.83883e-19 0)
(6.18563 2.77458e-19 0)
(6.17601 2.71105e-19 0)
(6.16626 2.64824e-19 0)
(6.15638 2.58616e-19 0)
(6.14636 2.52481e-19 0)
(6.13622 2.46419e-19 0)
(6.12593 2.4043e-19 0)
(6.11551 2.34514e-19 0)
(6.10494 2.28673e-19 0)
(6.09422 2.22905e-19 0)
(6.08335 2.17211e-19 0)
(6.07232 2.11592e-19 0)
(6.06114 2.06047e-19 0)
(6.04979 2.00576e-19 0)
(6.03827 1.9518e-19 0)
(6.02659 1.89859e-19 0)
(6.01472 1.84612e-19 0)
(6.00268 1.79441e-19 0)
(5.99044 1.74344e-19 0)
(5.97802 1.69322e-19 0)
(5.9654 1.64375e-19 0)
(5.95257 1.59503e-19 0)
(5.93954 1.54706e-19 0)
(5.92629 1.49984e-19 0)
(5.91282 1.45337e-19 0)
(5.89912 1.40765e-19 0)
(5.88519 1.36268e-19 0)
(5.87101 1.31846e-19 0)
(5.85658 1.27498e-19 0)
(5.84189 1.23226e-19 0)
(5.82693 1.19028e-19 0)
(5.81169 1.14904e-19 0)
(5.79617 1.10855e-19 0)
(5.78034 1.06881e-19 0)
(5.76421 1.02981e-19 0)
(5.74775 9.91554e-20 0)
(5.73097 9.54039e-20 0)
(5.71383 9.17266e-20 0)
(5.69634 8.81232e-20 0)
(5.67847 8.45937e-20 0)
(5.6602 8.11379e-20 0)
(5.64154 7.77558e-20 0)
(5.62244 7.44471e-20 0)
(5.6029 7.12118e-20 0)
(5.5829 6.80498e-20 0)
(5.56241 6.49608e-20 0)
(5.54141 6.19447e-20 0)
(5.51988 5.90014e-20 0)
(5.49778 5.61306e-20 0)
(5.4751 5.33323e-20 0)
(5.45179 5.06061e-20 0)
(5.42782 4.79519e-20 0)
(5.40317 4.53695e-20 0)
(5.37777 4.28587e-20 0)
(5.35161 4.04192e-20 0)
(5.32461 3.80507e-20 0)
(5.29674 3.57529e-20 0)
(5.26794 3.35256e-20 0)
(5.23813 3.13685e-20 0)
(5.20726 2.92811e-20 0)
(5.17525 2.72632e-20 0)
(5.142 2.53142e-20 0)
(5.10743 2.34339e-20 0)
(5.07141 2.16217e-20 0)
(5.03385 1.98772e-20 0)
(4.99459 1.81998e-20 0)
(4.95347 1.65892e-20 0)
(4.91033 1.50447e-20 0)
(4.86495 1.35659e-20 0)
(4.8171 1.21523e-20 0)
(4.7665 1.08034e-20 0)
(4.71282 9.51872e-21 0)
(4.65568 8.29806e-21 0)
(4.59462 7.1412e-21 0)
(4.52908 6.04815e-21 0)
(4.45838 5.01896e-21 0)
(4.38167 4.05391e-21 0)
(4.29786 3.15429e-21 0)
(4.20545 2.3213e-21 0)
(4.10249 1.55564e-21 0)
(3.98644 8.60141e-22 0)
(3.85393 2.40639e-22 0)
(3.70028 -2.9395e-22 0)
(3.51888 -7.29787e-22 0)
(3.30017 -1.04573e-21 0)
(3.03011 -1.20657e-21 0)
(2.68744 -1.1354e-21 0)
(2.24057 -7.14781e-22 0)
(1.66952 1.08206e-22 0)
(1.01594 3.23802e-21 0)
(0.340022 -9.33314e-22 0)
)
;

boundaryField
{
    top_wall
    {
        type            noSlip;
    }
    inlet
    {
        type            cyclic;
    }
    bot_wall
    {
        type            noSlip;
    }
    outlet
    {
        type            cyclic;
    }
    frontAndBack
    {
        type            empty;
    }
}


// ************************************************************************* //
