# Wall shear stress
# Time          	patch           	min             	max             
0.5             	top_wall	(-1.06461065e-01 -6.41853210e-25 0.00000000e+00)	(-1.06461065e-01 -6.41853210e-25 0.00000000e+00)
0.5             	bot_wall	(-1.06460969e-01 1.32476935e-18 0.00000000e+00)	(-1.06460969e-01 1.32476935e-18 0.00000000e+00)
1               	top_wall	(-1.00436200e-01 3.96352948e-23 0.00000000e+00)	(-1.00436200e-01 3.96352948e-23 0.00000000e+00)
1               	bot_wall	(-1.00436216e-01 1.05676812e-18 0.00000000e+00)	(-1.00436216e-01 1.05676812e-18 0.00000000e+00)
1.5             	top_wall	(-9.79745013e-02 -1.70263823e-22 0.00000000e+00)	(-9.79745013e-02 -1.70263823e-22 0.00000000e+00)
1.5             	bot_wall	(-9.79745468e-02 1.04877261e-18 0.00000000e+00)	(-9.79745468e-02 1.04877261e-18 0.00000000e+00)
2               	top_wall	(-9.66322917e-02 -3.61017109e-22 0.00000000e+00)	(-9.66322917e-02 -3.61017109e-22 0.00000000e+00)
2               	bot_wall	(-9.66323478e-02 1.19577082e-18 0.00000000e+00)	(-9.66323478e-02 1.19577082e-18 0.00000000e+00)
2.5             	top_wall	(-9.60197575e-02 3.21868410e-22 0.00000000e+00)	(-9.60197575e-02 3.21868410e-22 0.00000000e+00)
2.5             	bot_wall	(-9.60198144e-02 1.09112713e-18 0.00000000e+00)	(-9.60198144e-02 1.09112713e-18 0.00000000e+00)
3               	top_wall	(-9.60583417e-02 -3.38774919e-22 0.00000000e+00)	(-9.60583417e-02 -3.38774919e-22 0.00000000e+00)
3               	bot_wall	(-9.60583942e-02 1.08675419e-18 0.00000000e+00)	(-9.60583942e-02 1.08675419e-18 0.00000000e+00)
3.5             	top_wall	(-9.64381466e-02 4.06724294e-22 0.00000000e+00)	(-9.64381466e-02 4.06724294e-22 0.00000000e+00)
3.5             	bot_wall	(-9.64381918e-02 1.28440173e-18 0.00000000e+00)	(-9.64381918e-02 1.28440173e-18 0.00000000e+00)
4               	top_wall	(-9.69948973e-02 -2.79242571e-22 0.00000000e+00)	(-9.69948973e-02 -2.79242571e-22 0.00000000e+00)
4               	bot_wall	(-9.69949346e-02 1.33724932e-18 0.00000000e+00)	(-9.69949346e-02 1.33724932e-18 0.00000000e+00)
4.5             	top_wall	(-9.76484190e-02 -3.73739863e-22 0.00000000e+00)	(-9.76484190e-02 -3.73739863e-22 0.00000000e+00)
4.5             	bot_wall	(-9.76484491e-02 1.70032080e-18 0.00000000e+00)	(-9.76484491e-02 1.70032080e-18 0.00000000e+00)
5               	top_wall	(-9.83384541e-02 3.89556256e-22 0.00000000e+00)	(-9.83384541e-02 3.89556256e-22 0.00000000e+00)
5               	bot_wall	(-9.83384783e-02 1.36637667e-18 0.00000000e+00)	(-9.83384783e-02 1.36637667e-18 0.00000000e+00)
5.5             	top_wall	(-9.90194732e-02 -3.74861336e-22 0.00000000e+00)	(-9.90194732e-02 -3.74861336e-22 0.00000000e+00)
5.5             	bot_wall	(-9.90194926e-02 1.58479900e-18 0.00000000e+00)	(-9.90194926e-02 1.58479900e-18 0.00000000e+00)
6               	top_wall	(-9.96640922e-02 -3.80438217e-22 0.00000000e+00)	(-9.96640922e-02 -3.80438217e-22 0.00000000e+00)
6               	bot_wall	(-9.96641078e-02 1.71409033e-18 0.00000000e+00)	(-9.96641078e-02 1.71409033e-18 0.00000000e+00)
6.5             	top_wall	(-1.00259869e-01 -3.52184046e-22 0.00000000e+00)	(-1.00259869e-01 -3.52184046e-22 0.00000000e+00)
6.5             	bot_wall	(-1.00259882e-01 1.23167116e-18 0.00000000e+00)	(-1.00259882e-01 1.23167116e-18 0.00000000e+00)
7               	top_wall	(-1.00802381e-01 -1.42265118e-22 0.00000000e+00)	(-1.00802381e-01 -1.42265118e-22 0.00000000e+00)
7               	bot_wall	(-1.00802391e-01 1.19705905e-18 0.00000000e+00)	(-1.00802391e-01 1.19705905e-18 0.00000000e+00)
7.5             	top_wall	(-1.01291040e-01 -3.59307816e-22 0.00000000e+00)	(-1.01291040e-01 -3.59307816e-22 0.00000000e+00)
7.5             	bot_wall	(-1.01291049e-01 1.12811352e-18 0.00000000e+00)	(-1.01291049e-01 1.12811352e-18 0.00000000e+00)
8               	top_wall	(-1.01726956e-01 -2.25281084e-22 0.00000000e+00)	(-1.01726956e-01 -2.25281084e-22 0.00000000e+00)
8               	bot_wall	(-1.01726963e-01 1.24687214e-18 0.00000000e+00)	(-1.01726963e-01 1.24687214e-18 0.00000000e+00)
8.5             	top_wall	(-1.02112049e-01 2.59480578e-23 0.00000000e+00)	(-1.02112049e-01 2.59480578e-23 0.00000000e+00)
8.5             	bot_wall	(-1.02112055e-01 1.21755076e-18 0.00000000e+00)	(-1.02112055e-01 1.21755076e-18 0.00000000e+00)
9               	top_wall	(-1.02446487e-01 2.39429655e-22 0.00000000e+00)	(-1.02446487e-01 2.39429655e-22 0.00000000e+00)
9               	bot_wall	(-1.02446492e-01 1.37417614e-18 0.00000000e+00)	(-1.02446492e-01 1.37417614e-18 0.00000000e+00)
9.5             	top_wall	(-1.02706214e-01 -3.08579405e-22 0.00000000e+00)	(-1.02706214e-01 -3.08579405e-22 0.00000000e+00)
9.5             	bot_wall	(-1.02706219e-01 1.30861290e-18 0.00000000e+00)	(-1.02706219e-01 1.30861290e-18 0.00000000e+00)
10              	top_wall	(-1.02901050e-01 -1.68497624e-22 0.00000000e+00)	(-1.02901050e-01 -1.68497624e-22 0.00000000e+00)
10              	bot_wall	(-1.02901054e-01 1.16437689e-18 0.00000000e+00)	(-1.02901054e-01 1.16437689e-18 0.00000000e+00)
