/*--------------------------------*- C++ -*----------------------------------*\
| =========                 |                                                 |
| \\      /  F ield         | OpenFOAM: The Open Source CFD Toolbox           |
|  \\    /   O peration     | Version:  2312                                  |
|   \\  /    A nd           | Website:  www.openfoam.com                      |
|    \\/     M anipulation  |                                                 |
\*---------------------------------------------------------------------------*/
FoamFile
{
    version     2.0;
    format      ascii;
    arch        "LSB;label=32;scalar=64";
    class       volScalarField;
    location    "8.175";
    object      k;
}
// * * * * * * * * * * * * * * * * * * * * * * * * * * * * * * * * * * * * * //

dimensions      [0 2 -2 0 0 0 0];

internalField   nonuniform List<scalar> 
500
(
0.186029
0.175467
0.207504
0.232871
0.25011
0.262019
0.270511
0.276729
0.28137
0.284877
0.287543
0.289569
0.291098
0.292234
0.293052
0.293612
0.293959
0.294129
0.294149
0.294043
0.293828
0.293521
0.293133
0.292675
0.292156
0.291583
0.290964
0.290302
0.289604
0.288873
0.288112
0.287325
0.286515
0.285684
0.284833
0.283966
0.283083
0.282186
0.281276
0.280354
0.279423
0.278481
0.277531
0.276573
0.275608
0.274636
0.273658
0.272674
0.271685
0.270692
0.269694
0.268692
0.267687
0.266678
0.265666
0.264651
0.263633
0.262613
0.26159
0.260565
0.259538
0.25851
0.257479
0.256447
0.255413
0.254378
0.253341
0.252303
0.251263
0.250222
0.24918
0.248137
0.247093
0.246048
0.245001
0.243954
0.242906
0.241857
0.240806
0.239755
0.238703
0.23765
0.236596
0.235542
0.234486
0.23343
0.232372
0.231314
0.230255
0.229195
0.228135
0.227073
0.226011
0.224948
0.223884
0.222819
0.221754
0.220688
0.21962
0.218552
0.217484
0.216414
0.215344
0.214273
0.213201
0.212129
0.211056
0.209982
0.208907
0.207832
0.206756
0.205679
0.204602
0.203524
0.202446
0.201367
0.200287
0.199207
0.198126
0.197046
0.195964
0.194882
0.1938
0.192718
0.191635
0.190552
0.189469
0.188386
0.187303
0.18622
0.185136
0.184053
0.18297
0.181888
0.180805
0.179723
0.178641
0.17756
0.176479
0.175399
0.17432
0.173242
0.172164
0.171087
0.170012
0.168938
0.167864
0.166793
0.165723
0.164654
0.163587
0.162522
0.161459
0.160398
0.159339
0.158282
0.157228
0.156176
0.155128
0.154082
0.153039
0.151999
0.150962
0.149929
0.1489
0.147874
0.146852
0.145835
0.144822
0.143813
0.142809
0.14181
0.140815
0.139826
0.138843
0.137865
0.136892
0.135926
0.134966
0.134013
0.133066
0.132126
0.131193
0.130267
0.129348
0.128438
0.127535
0.126641
0.125755
0.124877
0.124008
0.123149
0.122299
0.121458
0.120627
0.119806
0.118995
0.118195
0.117405
0.116626
0.115858
0.115102
0.114357
0.113625
0.112904
0.112195
0.111499
0.110816
0.110145
0.109487
0.108843
0.108213
0.107596
0.106992
0.106403
0.105829
0.105268
0.104722
0.104192
0.103676
0.103175
0.102689
0.102219
0.101764
0.101325
0.100902
0.100495
0.100104
0.0997286
0.09937
0.0990278
0.0987021
0.098393
0.0981006
0.0978249
0.0975661
0.0973243
0.0970994
0.0968916
0.096701
0.0965275
0.0963712
0.0962321
0.0961104
0.096006
0.0959189
0.0958493
0.095797
0.0957622
0.0957447
0.0957447
0.0957622
0.095797
0.0958493
0.0959189
0.096006
0.0961104
0.0962321
0.0963712
0.0965275
0.096701
0.0968916
0.0970994
0.0973243
0.0975662
0.0978249
0.0981006
0.098393
0.0987021
0.0990278
0.09937
0.0997287
0.100104
0.100495
0.100902
0.101325
0.101764
0.102219
0.102689
0.103175
0.103676
0.104192
0.104722
0.105268
0.105829
0.106403
0.106992
0.107596
0.108213
0.108843
0.109487
0.110145
0.110816
0.111499
0.112195
0.112904
0.113625
0.114358
0.115102
0.115859
0.116626
0.117405
0.118195
0.118995
0.119806
0.120627
0.121458
0.122299
0.123149
0.124008
0.124877
0.125755
0.126641
0.127535
0.128438
0.129348
0.130267
0.131193
0.132126
0.133066
0.134013
0.134966
0.135926
0.136892
0.137865
0.138843
0.139826
0.140815
0.14181
0.142809
0.143813
0.144822
0.145835
0.146853
0.147874
0.1489
0.149929
0.150962
0.151999
0.153039
0.154082
0.155128
0.156176
0.157228
0.158282
0.159339
0.160398
0.161459
0.162522
0.163587
0.164654
0.165723
0.166793
0.167864
0.168938
0.170012
0.171087
0.172164
0.173242
0.17432
0.175399
0.176479
0.17756
0.178641
0.179723
0.180805
0.181888
0.18297
0.184053
0.185136
0.18622
0.187303
0.188386
0.189469
0.190552
0.191635
0.192718
0.1938
0.194882
0.195964
0.197046
0.198127
0.199207
0.200287
0.201367
0.202446
0.203524
0.204602
0.205679
0.206756
0.207832
0.208907
0.209982
0.211056
0.212129
0.213201
0.214273
0.215344
0.216414
0.217484
0.218552
0.21962
0.220688
0.221754
0.222819
0.223884
0.224948
0.226011
0.227073
0.228135
0.229195
0.230255
0.231314
0.232372
0.23343
0.234486
0.235542
0.236596
0.23765
0.238703
0.239755
0.240806
0.241857
0.242906
0.243954
0.245001
0.246048
0.247093
0.248137
0.24918
0.250222
0.251263
0.252303
0.253341
0.254378
0.255413
0.256447
0.257479
0.25851
0.259538
0.260565
0.26159
0.262613
0.263633
0.264651
0.265666
0.266678
0.267687
0.268692
0.269694
0.270692
0.271685
0.272674
0.273658
0.274636
0.275608
0.276573
0.277531
0.278481
0.279423
0.280354
0.281276
0.282186
0.283083
0.283966
0.284833
0.285684
0.286515
0.287325
0.288112
0.288873
0.289604
0.290302
0.290964
0.291583
0.292156
0.292675
0.293133
0.293521
0.293828
0.294043
0.294149
0.294129
0.293959
0.293612
0.293052
0.292234
0.291098
0.289569
0.287543
0.284877
0.28137
0.276729
0.270511
0.262019
0.25011
0.232871
0.207504
0.175467
0.186029
)
;

boundaryField
{
    top_wall
    {
        type            kLowReWallFunction;
        value           uniform 0.00421993;
    }
    inlet
    {
        type            cyclic;
    }
    bot_wall
    {
        type            kLowReWallFunction;
        value           uniform 0.00421993;
    }
    outlet
    {
        type            cyclic;
    }
    frontAndBack
    {
        type            empty;
    }
}


// ************************************************************************* //
