/*--------------------------------*- C++ -*----------------------------------*\
| =========                 |                                                 |
| \\      /  F ield         | OpenFOAM: The Open Source CFD Toolbox           |
|  \\    /   O peration     | Version:  2312                                  |
|   \\  /    A nd           | Website:  www.openfoam.com                      |
|    \\/     M anipulation  |                                                 |
\*---------------------------------------------------------------------------*/
FoamFile
{
    version     2.0;
    format      ascii;
    arch        "LSB;label=32;scalar=64";
    class       volScalarField;
    location    "8.175";
    object      nut;
}
// * * * * * * * * * * * * * * * * * * * * * * * * * * * * * * * * * * * * * //

dimensions      [0 2 -1 0 0 0 0];

internalField   nonuniform List<scalar> 
500
(
4.84324e-06
9.78418e-06
2.03517e-05
3.30191e-05
4.61483e-05
5.92535e-05
7.21864e-05
8.49018e-05
9.73892e-05
0.000109651
0.000121695
0.000133528
0.000145159
0.000156598
0.00016785
0.000178923
0.000189823
0.000200556
0.000211128
0.000221543
0.000231805
0.000241919
0.000251888
0.000261715
0.000271405
0.00028096
0.000290382
0.000299675
0.000308841
0.000317882
0.0003268
0.000335597
0.000344275
0.000352837
0.000361283
0.000369616
0.000377836
0.000385946
0.000393947
0.000401839
0.000409625
0.000417306
0.000424882
0.000432355
0.000439726
0.000446996
0.000454166
0.000461237
0.000468209
0.000475084
0.000481863
0.000488546
0.000495134
0.000501629
0.000508029
0.000514338
0.000520554
0.000526679
0.000532714
0.000538659
0.000544515
0.000550282
0.000555961
0.000561553
0.000567058
0.000572477
0.00057781
0.000583058
0.000588222
0.000593302
0.000598298
0.000603212
0.000608043
0.000612793
0.000617461
0.000622048
0.000626555
0.000630982
0.00063533
0.000639599
0.00064379
0.000647904
0.000651939
0.000655899
0.000659781
0.000663589
0.00066732
0.000670977
0.00067456
0.000678069
0.000681504
0.000684867
0.000688158
0.000691376
0.000694524
0.0006976
0.000700607
0.000703543
0.000706411
0.000709209
0.00071194
0.000714602
0.000717198
0.000719727
0.00072219
0.000724588
0.00072692
0.000729188
0.000731393
0.000733534
0.000735612
0.000737628
0.000739583
0.000741477
0.00074331
0.000745084
0.000746798
0.000748455
0.000750053
0.000751594
0.000753078
0.000754506
0.00075588
0.000757198
0.000758462
0.000759674
0.000760832
0.000761939
0.000762995
0.000764
0.000764955
0.000765861
0.000766719
0.00076753
0.000768294
0.000769011
0.000769684
0.000770312
0.000770897
0.000771439
0.000771939
0.000772398
0.000772816
0.000773195
0.000773536
0.000773839
0.000774105
0.000774336
0.000774531
0.000774693
0.000774821
0.000774918
0.000774983
0.000775018
0.000775024
0.000775001
0.000774952
0.000774876
0.000774775
0.00077465
0.000774502
0.000774332
0.000774141
0.00077393
0.000773701
0.000773453
0.000773189
0.00077291
0.000772616
0.000772308
0.000771989
0.000771659
0.000771318
0.000770969
0.000770612
0.000770248
0.000769879
0.000769506
0.000769129
0.000768751
0.000768371
0.000767991
0.000767613
0.000767236
0.000766863
0.000766494
0.00076613
0.000765772
0.000765422
0.000765079
0.000764746
0.000764423
0.00076411
0.000763808
0.000763519
0.000763243
0.000762981
0.000762733
0.0007625
0.000762282
0.00076208
0.000761895
0.000761726
0.000761574
0.000761439
0.000761322
0.000761222
0.00076114
0.000761076
0.000761029
0.000760999
0.000760986
0.00076099
0.000761011
0.000761047
0.000761099
0.000761166
0.000761246
0.000761341
0.000761448
0.000761567
0.000761697
0.000761837
0.000761986
0.000762144
0.000762308
0.000762478
0.000762653
0.000762831
0.000763012
0.000763194
0.000763376
0.000763557
0.000763735
0.00076391
0.000764081
0.000764245
0.000764403
0.000764553
0.000764695
0.000764826
0.000764947
0.000765057
0.000765154
0.000765239
0.00076531
0.000765368
0.000765412
0.000765441
0.000765456
0.000765456
0.000765441
0.000765412
0.000765368
0.00076531
0.000765239
0.000765154
0.000765057
0.000764947
0.000764826
0.000764695
0.000764553
0.000764403
0.000764246
0.000764081
0.00076391
0.000763735
0.000763557
0.000763376
0.000763194
0.000763012
0.000762831
0.000762653
0.000762478
0.000762308
0.000762144
0.000761987
0.000761837
0.000761697
0.000761567
0.000761448
0.000761341
0.000761247
0.000761166
0.000761099
0.000761047
0.000761011
0.00076099
0.000760986
0.000760999
0.000761029
0.000761076
0.00076114
0.000761223
0.000761322
0.00076144
0.000761574
0.000761726
0.000761895
0.00076208
0.000762282
0.0007625
0.000762733
0.000762981
0.000763244
0.00076352
0.000763809
0.00076411
0.000764423
0.000764746
0.00076508
0.000765422
0.000765773
0.00076613
0.000766494
0.000766863
0.000767236
0.000767613
0.000767992
0.000768371
0.000768751
0.00076913
0.000769506
0.00076988
0.000770249
0.000770612
0.000770969
0.000771318
0.000771659
0.000771989
0.000772309
0.000772616
0.00077291
0.000773189
0.000773454
0.000773701
0.000773931
0.000774142
0.000774333
0.000774503
0.000774651
0.000774776
0.000774877
0.000774952
0.000775002
0.000775024
0.000775018
0.000774983
0.000774918
0.000774822
0.000774693
0.000774532
0.000774336
0.000774106
0.000773839
0.000773536
0.000773196
0.000772817
0.000772398
0.000771939
0.000771439
0.000770897
0.000770313
0.000769684
0.000769012
0.000768294
0.00076753
0.00076672
0.000765861
0.000764955
0.000764
0.000762995
0.000761939
0.000760833
0.000759674
0.000758463
0.000757198
0.00075588
0.000754507
0.000753078
0.000751594
0.000750053
0.000748455
0.000746799
0.000745084
0.00074331
0.000741477
0.000739583
0.000737628
0.000735612
0.000733534
0.000731393
0.000729188
0.00072692
0.000724588
0.00072219
0.000719727
0.000717198
0.000714603
0.00071194
0.000709209
0.000706411
0.000703543
0.000700607
0.000697601
0.000694524
0.000691377
0.000688158
0.000684867
0.000681505
0.000678069
0.00067456
0.000670977
0.00066732
0.000663589
0.000659782
0.000655899
0.00065194
0.000647904
0.00064379
0.000639599
0.00063533
0.000630982
0.000626555
0.000622048
0.000617461
0.000612793
0.000608043
0.000603212
0.000598298
0.000593302
0.000588222
0.000583058
0.00057781
0.000572477
0.000567058
0.000561553
0.000555961
0.000550282
0.000544515
0.000538659
0.000532714
0.000526679
0.000520554
0.000514338
0.000508029
0.000501629
0.000495134
0.000488546
0.000481863
0.000475084
0.000468209
0.000461237
0.000454166
0.000446996
0.000439726
0.000432355
0.000424882
0.000417306
0.000409625
0.000401839
0.000393947
0.000385946
0.000377836
0.000369616
0.000361283
0.000352837
0.000344275
0.000335597
0.0003268
0.000317882
0.000308841
0.000299675
0.000290382
0.00028096
0.000271405
0.000261715
0.000251888
0.000241919
0.000231805
0.000221543
0.000211128
0.000200556
0.000189823
0.000178923
0.00016785
0.000156598
0.000145159
0.000133528
0.000121695
0.000109651
9.73892e-05
8.49018e-05
7.21864e-05
5.92535e-05
4.61483e-05
3.30191e-05
2.03517e-05
9.78418e-06
4.84324e-06
)
;

boundaryField
{
    top_wall
    {
        type            nutLowReWallFunction;
        value           uniform 0;
    }
    inlet
    {
        type            cyclic;
    }
    bot_wall
    {
        type            nutLowReWallFunction;
        value           uniform 0;
    }
    outlet
    {
        type            cyclic;
    }
    frontAndBack
    {
        type            empty;
    }
}


// ************************************************************************* //
