/*--------------------------------*- C++ -*----------------------------------*\
| =========                 |                                                 |
| \\      /  F ield         | OpenFOAM: The Open Source CFD Toolbox           |
|  \\    /   O peration     | Version:  2312                                  |
|   \\  /    A nd           | Website:  www.openfoam.com                      |
|    \\/     M anipulation  |                                                 |
\*---------------------------------------------------------------------------*/
FoamFile
{
    version     2.0;
    format      ascii;
    arch        "LSB;label=32;scalar=64";
    class       volVectorField;
    location    "8.175";
    object      U;
}
// * * * * * * * * * * * * * * * * * * * * * * * * * * * * * * * * * * * * * //

dimensions      [0 1 -1 0 0 0 0];

internalField   nonuniform List<vector> 
500
(
(0.348756 -4.92894e-18 0)
(0.817343 -8.18578e-18 0)
(1.16432 -8.22352e-18 0)
(1.41397 -7.95974e-18 0)
(1.60403 -7.89411e-18 0)
(1.75675 -7.89311e-18 0)
(1.88438 -7.8965e-18 0)
(1.9941 -7.89783e-18 0)
(2.09043 -7.89603e-18 0)
(2.17638 -7.89611e-18 0)
(2.25403 -7.89701e-18 0)
(2.32491 -7.89811e-18 0)
(2.39014 -7.89923e-18 0)
(2.4506 -7.90051e-18 0)
(2.50697 -7.90236e-18 0)
(2.55979 -7.90542e-18 0)
(2.6095 -7.90885e-18 0)
(2.65646 -7.91128e-18 0)
(2.70098 -7.91249e-18 0)
(2.74332 -7.91907e-18 0)
(2.78368 -7.9593e-18 0)
(2.82225 -7.99783e-18 0)
(2.8592 -8.00904e-18 0)
(2.89466 -8.04496e-18 0)
(2.92875 -8.07983e-18 0)
(2.96158 -8.08665e-18 0)
(2.99325 -8.08726e-18 0)
(3.02384 -8.08951e-18 0)
(3.05342 -8.13648e-18 0)
(3.08207 -8.17556e-18 0)
(3.10984 -8.16375e-18 0)
(3.13679 -8.15323e-18 0)
(3.16297 -8.19357e-18 0)
(3.18843 -8.23136e-18 0)
(3.2132 -8.21642e-18 0)
(3.23733 -8.19555e-18 0)
(3.26085 -8.17941e-18 0)
(3.28379 -8.19191e-18 0)
(3.30618 -8.20388e-18 0)
(3.32805 -8.18773e-18 0)
(3.34942 -8.16806e-18 0)
(3.37032 -8.15015e-18 0)
(3.39077 -8.13366e-18 0)
(3.4108 -8.11847e-18 0)
(3.43041 -8.10442e-18 0)
(3.44962 -8.09155e-18 0)
(3.46846 -8.0797e-18 0)
(3.48694 -8.06868e-18 0)
(3.50507 -8.05836e-18 0)
(3.52287 -8.04856e-18 0)
(3.54035 -8.03937e-18 0)
(3.55752 -8.03065e-18 0)
(3.5744 -8.0223e-18 0)
(3.59099 -8.01424e-18 0)
(3.60731 -8.00639e-18 0)
(3.62335 -7.99869e-18 0)
(3.63915 -7.9911e-18 0)
(3.65469 -7.98358e-18 0)
(3.67 -7.97608e-18 0)
(3.68507 -7.96858e-18 0)
(3.69993 -7.96104e-18 0)
(3.71456 -7.95345e-18 0)
(3.72898 -7.94578e-18 0)
(3.7432 -7.938e-18 0)
(3.75723 -7.93011e-18 0)
(3.77106 -7.92207e-18 0)
(3.7847 -7.91388e-18 0)
(3.79817 -7.90551e-18 0)
(3.81145 -7.89696e-18 0)
(3.82457 -7.8882e-18 0)
(3.83752 -7.8792e-18 0)
(3.85031 -7.87011e-18 0)
(3.86294 -7.86092e-18 0)
(3.87542 -7.85144e-18 0)
(3.88775 -7.84168e-18 0)
(3.89994 -7.83176e-18 0)
(3.91198 -7.82166e-18 0)
(3.92388 -7.81137e-18 0)
(3.93565 -7.80085e-18 0)
(3.94729 -7.7901e-18 0)
(3.9588 -7.77907e-18 0)
(3.97018 -7.76776e-18 0)
(3.98144 -7.75615e-18 0)
(3.99258 -7.7442e-18 0)
(4.0036 -7.7319e-18 0)
(4.01451 -7.71922e-18 0)
(4.0253 -7.70615e-18 0)
(4.03599 -7.69265e-18 0)
(4.04657 -7.67872e-18 0)
(4.05704 -7.66433e-18 0)
(4.06741 -7.64948e-18 0)
(4.07767 -7.63416e-18 0)
(4.08784 -7.61836e-18 0)
(4.09791 -7.6021e-18 0)
(4.10789 -7.5854e-18 0)
(4.11777 -7.56829e-18 0)
(4.12755 -7.55081e-18 0)
(4.13725 -7.533e-18 0)
(4.14686 -7.51494e-18 0)
(4.15638 -7.49668e-18 0)
(4.16582 -7.47832e-18 0)
(4.17517 -7.45997e-18 0)
(4.18444 -7.4416e-18 0)
(4.19362 -7.42333e-18 0)
(4.20273 -7.40517e-18 0)
(4.21176 -7.38997e-18 0)
(4.22071 -7.38192e-18 0)
(4.22958 -7.36365e-18 0)
(4.23837 -7.32046e-18 0)
(4.2471 -7.27825e-18 0)
(4.25575 -7.26289e-18 0)
(4.26432 -7.26267e-18 0)
(4.27283 -7.26019e-18 0)
(4.28126 -7.25685e-18 0)
(4.28962 -7.25608e-18 0)
(4.29792 -7.25811e-18 0)
(4.30615 -7.26357e-18 0)
(4.31431 -7.27339e-18 0)
(4.3224 -7.2863e-18 0)
(4.33043 -7.28861e-18 0)
(4.33839 -7.24625e-18 0)
(4.34629 -7.20369e-18 0)
(4.35412 -7.20517e-18 0)
(4.3619 -7.2166e-18 0)
(4.36961 -7.22427e-18 0)
(4.37725 -7.2271e-18 0)
(4.38484 -7.2261e-18 0)
(4.39237 -7.22207e-18 0)
(4.39983 -7.21562e-18 0)
(4.40724 -7.21038e-18 0)
(4.41458 -7.21148e-18 0)
(4.42187 -7.20004e-18 0)
(4.4291 -7.15628e-18 0)
(4.43627 -7.11162e-18 0)
(4.44339 -7.10059e-18 0)
(4.45045 -7.10735e-18 0)
(4.45745 -7.09552e-18 0)
(4.46439 -7.05182e-18 0)
(4.47128 -7.00835e-18 0)
(4.47811 -6.99711e-18 0)
(4.48489 -7.00422e-18 0)
(4.49161 -6.99547e-18 0)
(4.49827 -6.95381e-18 0)
(4.50488 -6.91103e-18 0)
(4.51144 -6.89887e-18 0)
(4.51794 -6.90172e-18 0)
(4.52439 -6.9052e-18 0)
(4.53078 -6.9111e-18 0)
(4.53712 -6.91006e-18 0)
(4.5434 -6.83912e-18 0)
(4.54963 -6.76773e-18 0)
(4.5558 -6.76186e-18 0)
(4.56193 -6.75859e-18 0)
(4.568 -6.75191e-18 0)
(4.57401 -6.7425e-18 0)
(4.57997 -6.73045e-18 0)
(4.58588 -6.71716e-18 0)
(4.59173 -6.6904e-18 0)
(4.59753 -6.6378e-18 0)
(4.60328 -6.5758e-18 0)
(4.60897 -6.5441e-18 0)
(4.6146 -6.51376e-18 0)
(4.62019 -6.42204e-18 0)
(4.62572 -6.34047e-18 0)
(4.63119 -6.30512e-18 0)
(4.63662 -6.27258e-18 0)
(4.64198 -6.2145e-18 0)
(4.64729 -6.18133e-18 0)
(4.65255 -6.16292e-18 0)
(4.65775 -6.13876e-18 0)
(4.6629 -6.13024e-18 0)
(4.66799 -6.10397e-18 0)
(4.67303 -6.04327e-18 0)
(4.67801 -6.00138e-18 0)
(4.68294 -5.98124e-18 0)
(4.68781 -5.93832e-18 0)
(4.69262 -5.88722e-18 0)
(4.69738 -5.8263e-18 0)
(4.70208 -5.77305e-18 0)
(4.70672 -5.72288e-18 0)
(4.71131 -5.68863e-18 0)
(4.71583 -5.66732e-18 0)
(4.72031 -5.6496e-18 0)
(4.72472 -5.61395e-18 0)
(4.72907 -5.55617e-18 0)
(4.73337 -5.5134e-18 0)
(4.73761 -5.48322e-18 0)
(4.74178 -5.42345e-18 0)
(4.7459 -5.34614e-18 0)
(4.74996 -5.31239e-18 0)
(4.75396 -5.28275e-18 0)
(4.7579 -5.2297e-18 0)
(4.76177 -5.20008e-18 0)
(4.76559 -5.18718e-18 0)
(4.76934 -5.15539e-18 0)
(4.77304 -5.10538e-18 0)
(4.77667 -5.05719e-18 0)
(4.78024 -5.02645e-18 0)
(4.78375 -5.00913e-18 0)
(4.78719 -4.99362e-18 0)
(4.79057 -4.95789e-18 0)
(4.79389 -4.89984e-18 0)
(4.79714 -4.85825e-18 0)
(4.80033 -4.83014e-18 0)
(4.80346 -4.7667e-18 0)
(4.80652 -4.68383e-18 0)
(4.80952 -4.64143e-18 0)
(4.81245 -4.59875e-18 0)
(4.81532 -4.52727e-18 0)
(4.81812 -4.45618e-18 0)
(4.82085 -4.37908e-18 0)
(4.82352 -4.29492e-18 0)
(4.82612 -4.23083e-18 0)
(4.82866 -4.1538e-18 0)
(4.83113 -4.09657e-18 0)
(4.83353 -4.09308e-18 0)
(4.83587 -4.04197e-18 0)
(4.83814 -3.97124e-18 0)
(4.84034 -3.93059e-18 0)
(4.84247 -3.90081e-18 0)
(4.84454 -3.88061e-18 0)
(4.84654 -3.83574e-18 0)
(4.84847 -3.76824e-18 0)
(4.85033 -3.73361e-18 0)
(4.85212 -3.69718e-18 0)
(4.85385 -3.65862e-18 0)
(4.85551 -3.63398e-18 0)
(4.8571 -3.59076e-18 0)
(4.85862 -3.52141e-18 0)
(4.86007 -3.43734e-18 0)
(4.86145 -3.4008e-18 0)
(4.86276 -3.38826e-18 0)
(4.86401 -3.36913e-18 0)
(4.86519 -3.33879e-18 0)
(4.86629 -3.29002e-18 0)
(4.86733 -3.23716e-18 0)
(4.8683 -3.2028e-18 0)
(4.8692 -3.19385e-18 0)
(4.87003 -3.17422e-18 0)
(4.87079 -3.13742e-18 0)
(4.87148 -3.09811e-18 0)
(4.87211 -3.05646e-18 0)
(4.87266 -3.01202e-18 0)
(4.87315 -2.98472e-18 0)
(4.87356 -2.9766e-18 0)
(4.87391 -2.91721e-18 0)
(4.87418 -2.83582e-18 0)
(4.87439 -2.79326e-18 0)
(4.87453 -2.76404e-18 0)
(4.8746 -2.72535e-18 0)
(4.8746 -2.70059e-18 0)
(4.87453 -2.68214e-18 0)
(4.87439 -2.62947e-18 0)
(4.87418 -2.54467e-18 0)
(4.87391 -2.42322e-18 0)
(4.87356 -2.35288e-18 0)
(4.87315 -2.34763e-18 0)
(4.87266 -2.33359e-18 0)
(4.87211 -2.26461e-18 0)
(4.87148 -2.16694e-18 0)
(4.87079 -2.12125e-18 0)
(4.87003 -2.10822e-18 0)
(4.8692 -2.06094e-18 0)
(4.8683 -1.92562e-18 0)
(4.86733 -1.80516e-18 0)
(4.86629 -1.76639e-18 0)
(4.86519 -1.7398e-18 0)
(4.86401 -1.70516e-18 0)
(4.86276 -1.66987e-18 0)
(4.86145 -1.63433e-18 0)
(4.86007 -1.60207e-18 0)
(4.85862 -1.59506e-18 0)
(4.8571 -1.5839e-18 0)
(4.85551 -1.54149e-18 0)
(4.85385 -1.48913e-18 0)
(4.85212 -1.4227e-18 0)
(4.85033 -1.37092e-18 0)
(4.84847 -1.34176e-18 0)
(4.84654 -1.3062e-18 0)
(4.84454 -1.28684e-18 0)
(4.84247 -1.24904e-18 0)
(4.84034 -1.21275e-18 0)
(4.83814 -1.19044e-18 0)
(4.83587 -1.14448e-18 0)
(4.83353 -1.11035e-18 0)
(4.83113 -1.06106e-18 0)
(4.82866 -1.02107e-18 0)
(4.82612 -9.88173e-19 0)
(4.82352 -9.57907e-19 0)
(4.82085 -9.47298e-19 0)
(4.81812 -9.21763e-19 0)
(4.81532 -8.47692e-19 0)
(4.81245 -7.5983e-19 0)
(4.80952 -7.06001e-19 0)
(4.80652 -6.72177e-19 0)
(4.80346 -6.55252e-19 0)
(4.80033 -6.41224e-19 0)
(4.79714 -6.11071e-19 0)
(4.79389 -5.60517e-19 0)
(4.79057 -5.08189e-19 0)
(4.78719 -4.53357e-19 0)
(4.78375 -4.13546e-19 0)
(4.78024 -3.84385e-19 0)
(4.77667 -3.68109e-19 0)
(4.77304 -3.36003e-19 0)
(4.76934 -2.95048e-19 0)
(4.76559 -2.76724e-19 0)
(4.76177 -2.6581e-19 0)
(4.7579 -2.42881e-19 0)
(4.75396 -1.85378e-19 0)
(4.74996 -1.14928e-19 0)
(4.7459 -5.00267e-20 0)
(4.74178 -1.77974e-20 0)
(4.7376 -2.45838e-20 0)
(4.73337 -3.77909e-20 0)
(4.72907 -4.40592e-20 0)
(4.72472 -4.71714e-20 0)
(4.72031 -4.99009e-20 0)
(4.71583 -5.20294e-20 0)
(4.71131 -5.36537e-20 0)
(4.70672 -5.48238e-20 0)
(4.70208 -5.55977e-20 0)
(4.69738 -5.60306e-20 0)
(4.69262 -5.62372e-20 0)
(4.68781 -5.62543e-20 0)
(4.68294 -5.61689e-20 0)
(4.67801 -5.60525e-20 0)
(4.67303 -5.58963e-20 0)
(4.66799 -5.57419e-20 0)
(4.6629 -5.56164e-20 0)
(4.65775 -5.55346e-20 0)
(4.65255 -5.5501e-20 0)
(4.64729 -5.55118e-20 0)
(4.64198 -5.56227e-20 0)
(4.63662 -5.58235e-20 0)
(4.63119 -5.61056e-20 0)
(4.62572 -5.64575e-20 0)
(4.62019 -5.68658e-20 0)
(4.6146 -5.73165e-20 0)
(4.60897 -5.7796e-20 0)
(4.60328 -5.8291e-20 0)
(4.59753 -5.87895e-20 0)
(4.59173 -5.92806e-20 0)
(4.58588 -5.97546e-20 0)
(4.57997 -6.02033e-20 0)
(4.57401 -6.06196e-20 0)
(4.56799 -6.09978e-20 0)
(4.56193 -6.13333e-20 0)
(4.5558 -6.16224e-20 0)
(4.54963 -6.18626e-20 0)
(4.5434 -6.2052e-20 0)
(4.53712 -6.21896e-20 0)
(4.53078 -6.2275e-20 0)
(4.52439 -6.23084e-20 0)
(4.51794 -6.22902e-20 0)
(4.51144 -6.22215e-20 0)
(4.50488 -6.21035e-20 0)
(4.49827 -6.19378e-20 0)
(4.49161 -6.17262e-20 0)
(4.48489 -6.14703e-20 0)
(4.47811 -6.11723e-20 0)
(4.47128 -6.08342e-20 0)
(4.46439 -6.04581e-20 0)
(4.45745 -6.00461e-20 0)
(4.45045 -5.96003e-20 0)
(4.44339 -5.91227e-20 0)
(4.43627 -5.86156e-20 0)
(4.4291 -5.80809e-20 0)
(4.42187 -5.75205e-20 0)
(4.41458 -5.69364e-20 0)
(4.40724 -5.63304e-20 0)
(4.39983 -5.57044e-20 0)
(4.39237 -5.506e-20 0)
(4.38484 -5.43988e-20 0)
(4.37725 -5.37225e-20 0)
(4.3696 -5.30326e-20 0)
(4.3619 -5.23304e-20 0)
(4.35412 -5.16174e-20 0)
(4.34629 -5.08948e-20 0)
(4.33839 -5.01639e-20 0)
(4.33043 -4.94259e-20 0)
(4.3224 -4.86818e-20 0)
(4.31431 -4.79327e-20 0)
(4.30615 -4.71797e-20 0)
(4.29792 -4.64236e-20 0)
(4.28962 -4.56653e-20 0)
(4.28126 -4.49057e-20 0)
(4.27283 -4.41456e-20 0)
(4.26432 -4.33857e-20 0)
(4.25575 -4.26267e-20 0)
(4.2471 -4.18693e-20 0)
(4.23837 -4.11141e-20 0)
(4.22958 -4.03617e-20 0)
(4.22071 -3.96127e-20 0)
(4.21176 -3.88674e-20 0)
(4.20273 -3.81266e-20 0)
(4.19362 -3.73905e-20 0)
(4.18444 -3.66596e-20 0)
(4.17517 -3.59343e-20 0)
(4.16582 -3.5215e-20 0)
(4.15638 -3.45019e-20 0)
(4.14686 -3.37955e-20 0)
(4.13725 -3.3096e-20 0)
(4.12755 -3.24037e-20 0)
(4.11777 -3.17188e-20 0)
(4.10789 -3.10415e-20 0)
(4.09791 -3.03721e-20 0)
(4.08784 -2.97107e-20 0)
(4.07767 -2.90576e-20 0)
(4.06741 -2.84128e-20 0)
(4.05704 -2.77764e-20 0)
(4.04657 -2.71487e-20 0)
(4.03599 -2.65297e-20 0)
(4.0253 -2.59196e-20 0)
(4.01451 -2.53183e-20 0)
(4.0036 -2.47259e-20 0)
(3.99258 -2.41425e-20 0)
(3.98144 -2.35682e-20 0)
(3.97018 -2.3003e-20 0)
(3.9588 -2.24468e-20 0)
(3.94729 -2.18997e-20 0)
(3.93565 -2.13617e-20 0)
(3.92388 -2.08328e-20 0)
(3.91198 -2.03129e-20 0)
(3.89994 -1.9802e-20 0)
(3.88775 -1.93002e-20 0)
(3.87542 -1.88072e-20 0)
(3.86294 -1.83232e-20 0)
(3.85031 -1.7848e-20 0)
(3.83752 -1.73815e-20 0)
(3.82457 -1.69237e-20 0)
(3.81145 -1.64746e-20 0)
(3.79817 -1.6034e-20 0)
(3.7847 -1.56018e-20 0)
(3.77106 -1.5178e-20 0)
(3.75723 -1.47624e-20 0)
(3.7432 -1.4355e-20 0)
(3.72898 -1.39556e-20 0)
(3.71456 -1.35642e-20 0)
(3.69993 -1.31805e-20 0)
(3.68507 -1.28046e-20 0)
(3.67 -1.24362e-20 0)
(3.65469 -1.20752e-20 0)
(3.63915 -1.17216e-20 0)
(3.62335 -1.13752e-20 0)
(3.60731 -1.10358e-20 0)
(3.59099 -1.07033e-20 0)
(3.5744 -1.03776e-20 0)
(3.55752 -1.00585e-20 0)
(3.54035 -9.7458e-21 0)
(3.52287 -9.43947e-21 0)
(3.50507 -9.1393e-21 0)
(3.48694 -8.84512e-21 0)
(3.46846 -8.55679e-21 0)
(3.44962 -8.27413e-21 0)
(3.43041 -7.99698e-21 0)
(3.4108 -7.72516e-21 0)
(3.39077 -7.4585e-21 0)
(3.37032 -7.19682e-21 0)
(3.34942 -6.93993e-21 0)
(3.32805 -6.68764e-21 0)
(3.30618 -6.43976e-21 0)
(3.28379 -6.19608e-21 0)
(3.26085 -5.9564e-21 0)
(3.23733 -5.7205e-21 0)
(3.2132 -5.48817e-21 0)
(3.18843 -5.25915e-21 0)
(3.16297 -5.03323e-21 0)
(3.13679 -4.81013e-21 0)
(3.10984 -4.58959e-21 0)
(3.08207 -4.37134e-21 0)
(3.05342 -4.15507e-21 0)
(3.02384 -3.94046e-21 0)
(2.99325 -3.72719e-21 0)
(2.96158 -3.51489e-21 0)
(2.92875 -3.30318e-21 0)
(2.89466 -3.09164e-21 0)
(2.8592 -2.87982e-21 0)
(2.82225 -2.66723e-21 0)
(2.78368 -2.45335e-21 0)
(2.74332 -2.23761e-21 0)
(2.70098 -2.01937e-21 0)
(2.65646 -1.79798e-21 0)
(2.6095 -1.5727e-21 0)
(2.55979 -1.34277e-21 0)
(2.50697 -1.10736e-21 0)
(2.4506 -8.65647e-22 0)
(2.39014 -6.1679e-22 0)
(2.32491 -3.60031e-22 0)
(2.25403 -9.47647e-23 0)
(2.17638 1.79301e-22 0)
(2.09043 4.61891e-22 0)
(1.9941 7.51736e-22 0)
(1.88438 1.04586e-21 0)
(1.75675 1.3383e-21 0)
(1.60403 1.6176e-21 0)
(1.41397 1.86125e-21 0)
(1.16432 2.02005e-21 0)
(0.817343 1.96985e-21 0)
(0.348756 9.44711e-22 0)
)
;

boundaryField
{
    top_wall
    {
        type            noSlip;
    }
    inlet
    {
        type            cyclic;
    }
    bot_wall
    {
        type            noSlip;
    }
    outlet
    {
        type            cyclic;
    }
    frontAndBack
    {
        type            empty;
    }
}


// ************************************************************************* //
