/*--------------------------------*- C++ -*----------------------------------*\
| =========                 |                                                 |
| \\      /  F ield         | OpenFOAM: The Open Source CFD Toolbox           |
|  \\    /   O peration     | Version:  2312                                  |
|   \\  /    A nd           | Website:  www.openfoam.com                      |
|    \\/     M anipulation  |                                                 |
\*---------------------------------------------------------------------------*/
FoamFile
{
    version     2.0;
    format      ascii;
    arch        "LSB;label=32;scalar=64";
    class       volScalarField;
    location    "56.045";
    object      k;
}
// * * * * * * * * * * * * * * * * * * * * * * * * * * * * * * * * * * * * * //

dimensions      [0 2 -2 0 0 0 0];

internalField   nonuniform List<scalar> 
4000
(
4.43829e-06
1.70228e-06
7.42009e-06
2.56812e-05
6.45275e-05
0.000132642
0.000238257
0.000387861
0.000584648
0.000827224
0.00110927
0.00142056
0.00174903
0.00208296
0.00241254
0.00273056
0.00303231
0.00331525
0.00357837
0.00382188
0.00404689
0.00425464
0.00444618
0.00462257
0.00478493
0.00493437
0.00507194
0.00519865
0.00531544
0.00542318
0.00552266
0.00561462
0.0056997
0.00577852
0.00585161
0.00591946
0.00598252
0.00604118
0.0060958
0.00614672
0.00619423
0.00623859
0.00628005
0.00631883
0.00635513
0.00638912
0.00642099
0.00645087
0.00647891
0.00650523
0.00652994
0.00655316
0.00657498
0.00659549
0.00661478
0.00663291
0.00664996
0.006666
0.00668108
0.00669526
0.0067086
0.00672113
0.00673291
0.00674396
0.00675433
0.00676405
0.00677314
0.00678164
0.00678958
0.00679697
0.00680385
0.00681024
0.00681615
0.00682161
0.00682664
0.00683126
0.00683547
0.00683931
0.00684278
0.0068459
0.00684868
0.00685113
0.00685327
0.00685511
0.00685667
0.00685794
0.00685894
0.00685968
0.00686018
0.00686043
0.00686044
0.00686024
0.00685981
0.00685918
0.00685834
0.0068573
0.00685607
0.00685466
0.00685307
0.00685131
0.00684938
0.00684729
0.00684504
0.00684264
0.00684009
0.0068374
0.00683457
0.0068316
0.0068285
0.00682528
0.00682193
0.00681846
0.00681487
0.00681117
0.00680736
0.00680344
0.00679941
0.00679529
0.00679106
0.00678674
0.00678232
0.0067778
0.00677319
0.00676849
0.0067637
0.00675882
0.00675386
0.0067488
0.00674367
0.00673845
0.00673316
0.00672778
0.00672232
0.00671679
0.00671118
0.0067055
0.00669974
0.00669392
0.00668802
0.00668205
0.00667601
0.00666991
0.00666374
0.0066575
0.0066512
0.00664483
0.0066384
0.00663191
0.00662536
0.00661875
0.00661208
0.00660535
0.00659856
0.00659172
0.00658481
0.00657786
0.00657085
0.00656378
0.00655666
0.00654949
0.00654227
0.006535
0.00652767
0.0065203
0.00651287
0.0065054
0.00649788
0.00649031
0.00648269
0.00647503
0.00646732
0.00645957
0.00645177
0.00644392
0.00643604
0.0064281
0.00642013
0.00641212
0.00640406
0.00639596
0.00638782
0.00637964
0.00637142
0.00636316
0.00635486
0.00634652
0.00633814
0.00632973
0.00632128
0.00631279
0.00630426
0.0062957
0.0062871
0.00627847
0.0062698
0.0062611
0.00625237
0.0062436
0.00623479
0.00622596
0.00621709
0.00620819
0.00619925
0.00619029
0.0061813
0.00617227
0.00616321
0.00615413
0.00614501
0.00613587
0.00612669
0.00611749
0.00610826
0.00609901
0.00608972
0.00608041
0.00607108
0.00606172
0.00605233
0.00604292
0.00603348
0.00602402
0.00601454
0.00600503
0.0059955
0.00598595
0.00597638
0.00596679
0.00595718
0.00594754
0.00593789
0.00592822
0.00591854
0.00590883
0.00589911
0.00588937
0.00587962
0.00586986
0.00586008
0.00585029
0.00584049
0.00583068
0.00582086
0.00581103
0.00580119
0.00579135
0.0057815
0.00577165
0.0057618
0.00575194
0.00574209
0.00573224
0.0057224
0.00571256
0.00570273
0.0056929
0.00568309
0.0056733
0.00566352
0.00565376
0.00564402
0.0056343
0.00562461
0.00561495
0.00560531
0.00559572
0.00558615
0.00557662
0.00556713
0.00555768
0.00554827
0.00553889
0.00552955
0.00552023
0.00551093
0.00550164
0.00549236
0.0054831
0.00547385
0.00546462
0.0054554
0.0054462
0.00543701
0.00542783
0.00541867
0.00540952
0.00540039
0.00539127
0.00538217
0.00537308
0.00536401
0.00535495
0.00534591
0.00533689
0.00532788
0.00531889
0.00530991
0.00530095
0.005292
0.00528307
0.00527416
0.00526526
0.00525638
0.00524752
0.00523867
0.00522984
0.00522103
0.00521224
0.00520346
0.0051947
0.00518596
0.00517723
0.00516853
0.00515984
0.00515117
0.00514251
0.00513388
0.00512526
0.00511666
0.00510808
0.00509952
0.00509098
0.00508245
0.00507395
0.00506546
0.00505699
0.00504854
0.00504011
0.0050317
0.00502331
0.00501494
0.00500659
0.00499826
0.00498995
0.00498165
0.00497338
0.00496513
0.0049569
0.00494868
0.00494049
0.00493232
0.00492417
0.00491604
0.00490793
0.00489984
0.00489177
0.00488372
0.00487569
0.00486769
0.0048597
0.00485174
0.00484379
0.00483587
0.00482797
0.00482009
0.00481223
0.0048044
0.00479658
0.00478879
0.00478102
0.00477327
0.00476554
0.00475783
0.00475015
0.00474249
0.00473485
0.00472723
0.00471963
0.00471206
0.0047045
0.00469697
0.00468947
0.00468198
0.00467452
0.00466708
0.00465966
0.00465227
0.00464489
0.00463754
0.00463022
0.00462291
0.00461563
0.00460837
0.00460113
0.00459392
0.00458673
0.00457956
0.00457242
0.0045653
0.0045582
0.00455112
0.00454407
0.00453704
0.00453003
0.00452305
0.00451609
0.00450915
0.00450224
0.00449535
0.00448848
0.00448164
0.00447482
0.00446802
0.00446125
0.00445449
0.00444777
0.00444106
0.00443438
0.00442773
0.00442109
0.00441448
0.00440789
0.00440133
0.00439479
0.00438827
0.00438178
0.00437531
0.00436886
0.00436244
0.00435604
0.00434967
0.00434331
0.00433698
0.00433068
0.0043244
0.00431814
0.0043119
0.00430569
0.0042995
0.00429334
0.00428719
0.00428108
0.00427498
0.00426891
0.00426286
0.00425684
0.00425084
0.00424486
0.0042389
0.00423297
0.00422706
0.00422118
0.00421532
0.00420948
0.00420366
0.00419787
0.0041921
0.00418636
0.00418063
0.00417493
0.00416926
0.0041636
0.00415797
0.00415237
0.00414678
0.00414122
0.00413568
0.00413017
0.00412467
0.0041192
0.00411376
0.00410833
0.00410293
0.00409755
0.0040922
0.00408686
0.00408155
0.00407627
0.004071
0.00406576
0.00406054
0.00405534
0.00405016
0.00404501
0.00403988
0.00403477
0.00402968
0.00402462
0.00401958
0.00401456
0.00400956
0.00400458
0.00399963
0.0039947
0.00398979
0.0039849
0.00398003
0.00397519
0.00397037
0.00396556
0.00396078
0.00395603
0.00395129
0.00394658
0.00394188
0.00393721
0.00393256
0.00392793
0.00392332
0.00391874
0.00391417
0.00390963
0.0039051
0.0039006
0.00389612
0.00389166
0.00388722
0.0038828
0.0038784
0.00387402
0.00386967
0.00386533
0.00386102
0.00385672
0.00385245
0.00384819
0.00384396
0.00383974
0.00383555
0.00383138
0.00382722
0.00382309
0.00381897
0.00381488
0.00381081
0.00380675
0.00380272
0.0037987
0.00379471
0.00379073
0.00378678
0.00378284
0.00377892
0.00377503
0.00377115
0.00376729
0.00376345
0.00375963
0.00375582
0.00375204
0.00374828
0.00374453
0.0037408
0.0037371
0.00373341
0.00372974
0.00372608
0.00372245
0.00371883
0.00371524
0.00371166
0.0037081
0.00370455
0.00370103
0.00369752
0.00369403
0.00369056
0.00368711
0.00368368
0.00368026
0.00367686
0.00367348
0.00367011
0.00366676
0.00366343
0.00366012
0.00365682
0.00365355
0.00365029
0.00364704
0.00364381
0.0036406
0.00363741
0.00363423
0.00363107
0.00362793
0.0036248
0.00362169
0.0036186
0.00361552
0.00361246
0.00360942
0.00360639
0.00360337
0.00360038
0.0035974
0.00359443
0.00359148
0.00358855
0.00358563
0.00358273
0.00357985
0.00357698
0.00357412
0.00357128
0.00356846
0.00356565
0.00356286
0.00356008
0.00355731
0.00355457
0.00355183
0.00354911
0.00354641
0.00354372
0.00354105
0.00353839
0.00353574
0.00353311
0.0035305
0.0035279
0.00352531
0.00352273
0.00352018
0.00351763
0.0035151
0.00351258
0.00351008
0.00350759
0.00350512
0.00350266
0.00350021
0.00349777
0.00349535
0.00349295
0.00349055
0.00348817
0.00348581
0.00348345
0.00348111
0.00347878
0.00347647
0.00347417
0.00347188
0.0034696
0.00346734
0.00346509
0.00346285
0.00346063
0.00345842
0.00345622
0.00345403
0.00345186
0.00344969
0.00344754
0.00344541
0.00344328
0.00344117
0.00343906
0.00343697
0.0034349
0.00343283
0.00343078
0.00342873
0.0034267
0.00342468
0.00342267
0.00342068
0.00341869
0.00341672
0.00341476
0.00341281
0.00341087
0.00340894
0.00340702
0.00340511
0.00340322
0.00340133
0.00339946
0.0033976
0.00339574
0.0033939
0.00339207
0.00339025
0.00338844
0.00338664
0.00338485
0.00338307
0.0033813
0.00337955
0.0033778
0.00337606
0.00337433
0.00337261
0.00337091
0.00336921
0.00336752
0.00336584
0.00336417
0.00336251
0.00336086
0.00335922
0.00335759
0.00335597
0.00335436
0.00335276
0.00335117
0.00334958
0.00334801
0.00334644
0.00334489
0.00334334
0.0033418
0.00334027
0.00333875
0.00333724
0.00333574
0.00333425
0.00333276
0.00333129
0.00332982
0.00332836
0.00332691
0.00332547
0.00332403
0.00332261
0.00332119
0.00331978
0.00331838
0.00331699
0.00331561
0.00331423
0.00331286
0.0033115
0.00331015
0.00330881
0.00330747
0.00330614
0.00330482
0.00330351
0.0033022
0.00330091
0.00329961
0.00329833
0.00329706
0.00329579
0.00329453
0.00329328
0.00329203
0.00329079
0.00328956
0.00328834
0.00328712
0.00328591
0.00328471
0.00328351
0.00328232
0.00328114
0.00327996
0.0032788
0.00327763
0.00327648
0.00327533
0.00327419
0.00327306
0.00327193
0.00327081
0.00326969
0.00326858
0.00326748
0.00326638
0.00326529
0.00326421
0.00326313
0.00326206
0.003261
0.00325994
0.00325889
0.00325784
0.0032568
0.00325577
0.00325474
0.00325372
0.0032527
0.00325169
0.00325068
0.00324968
0.00324869
0.0032477
0.00324672
0.00324574
0.00324477
0.00324381
0.00324285
0.00324189
0.00324094
0.00324
0.00323906
0.00323813
0.0032372
0.00323628
0.00323536
0.00323445
0.00323354
0.00323264
0.00323175
0.00323085
0.00322997
0.00322909
0.00322821
0.00322734
0.00322647
0.00322561
0.00322475
0.0032239
0.00322305
0.00322221
0.00322137
0.00322054
0.00321971
0.00321889
0.00321807
0.00321725
0.00321644
0.00321564
0.00321483
0.00321404
0.00321324
0.00321246
0.00321167
0.00321089
0.00321012
0.00320935
0.00320858
0.00320782
0.00320706
0.0032063
0.00320555
0.00320481
0.00320406
0.00320333
0.00320259
0.00320186
0.00320113
0.00320041
0.00319969
0.00319898
0.00319827
0.00319756
0.00319686
0.00319616
0.00319546
0.00319477
0.00319408
0.0031934
0.00319272
0.00319204
0.00319136
0.00319069
0.00319003
0.00318936
0.0031887
0.00318805
0.00318739
0.00318674
0.0031861
0.00318545
0.00318481
0.00318418
0.00318355
0.00318292
0.00318229
0.00318167
0.00318105
0.00318043
0.00317981
0.0031792
0.0031786
0.00317799
0.00317739
0.00317679
0.0031762
0.0031756
0.00317502
0.00317443
0.00317385
0.00317326
0.00317269
0.00317211
0.00317154
0.00317097
0.0031704
0.00316984
0.00316928
0.00316872
0.00316817
0.00316761
0.00316706
0.00316652
0.00316597
0.00316543
0.00316489
0.00316436
0.00316382
0.00316329
0.00316276
0.00316223
0.00316171
0.00316119
0.00316067
0.00316015
0.00315964
0.00315913
0.00315862
0.00315811
0.00315761
0.00315711
0.00315661
0.00315611
0.00315561
0.00315512
0.00315463
0.00315414
0.00315366
0.00315317
0.00315269
0.00315221
0.00315173
0.00315126
0.00315079
0.00315031
0.00314985
0.00314938
0.00314892
0.00314845
0.00314799
0.00314753
0.00314708
0.00314662
0.00314617
0.00314572
0.00314527
0.00314483
0.00314438
0.00314394
0.0031435
0.00314306
0.00314263
0.00314219
0.00314176
0.00314133
0.0031409
0.00314047
0.00314004
0.00313962
0.0031392
0.00313878
0.00313836
0.00313794
0.00313753
0.00313712
0.00313671
0.0031363
0.00313589
0.00313548
0.00313508
0.00313467
0.00313427
0.00313387
0.00313348
0.00313308
0.00313269
0.00313229
0.0031319
0.00313151
0.00313112
0.00313074
0.00313035
0.00312997
0.00312959
0.00312921
0.00312883
0.00312845
0.00312807
0.0031277
0.00312733
0.00312695
0.00312658
0.00312622
0.00312585
0.00312548
0.00312512
0.00312476
0.00312439
0.00312403
0.00312368
0.00312332
0.00312296
0.00312261
0.00312226
0.0031219
0.00312155
0.0031212
0.00312086
0.00312051
0.00312017
0.00311982
0.00311948
0.00311914
0.0031188
0.00311846
0.00311812
0.00311779
0.00311745
0.00311712
0.00311679
0.00311646
0.00311613
0.0031158
0.00311547
0.00311514
0.00311482
0.0031145
0.00311417
0.00311385
0.00311353
0.00311321
0.00311289
0.00311258
0.00311226
0.00311195
0.00311164
0.00311132
0.00311101
0.0031107
0.00311039
0.00311009
0.00310978
0.00310948
0.00310917
0.00310887
0.00310857
0.00310827
0.00310797
0.00310767
0.00310737
0.00310707
0.00310678
0.00310648
0.00310619
0.0031059
0.00310561
0.00310532
0.00310503
0.00310474
0.00310445
0.00310417
0.00310388
0.0031036
0.00310331
0.00310303
0.00310275
0.00310247
0.00310219
0.00310192
0.00310164
0.00310136
0.00310109
0.00310081
0.00310054
0.00310027
0.0031
0.00309973
0.00309946
0.00309919
0.00309892
0.00309866
0.00309839
0.00309813
0.00309786
0.0030976
0.00309734
0.00309708
0.00309682
0.00309656
0.0030963
0.00309605
0.00309579
0.00309554
0.00309528
0.00309503
0.00309478
0.00309453
0.00309427
0.00309403
0.00309378
0.00309353
0.00309328
0.00309304
0.00309279
0.00309255
0.0030923
0.00309206
0.00309182
0.00309158
0.00309134
0.0030911
0.00309086
0.00309063
0.00309039
0.00309015
0.00308992
0.00308969
0.00308945
0.00308922
0.00308899
0.00308876
0.00308853
0.0030883
0.00308807
0.00308785
0.00308762
0.00308739
0.00308717
0.00308695
0.00308672
0.0030865
0.00308628
0.00308606
0.00308584
0.00308562
0.0030854
0.00308519
0.00308497
0.00308476
0.00308454
0.00308433
0.00308411
0.0030839
0.00308369
0.00308348
0.00308327
0.00308306
0.00308285
0.00308265
0.00308244
0.00308223
0.00308203
0.00308182
0.00308162
0.00308142
0.00308122
0.00308102
0.00308082
0.00308062
0.00308042
0.00308022
0.00308002
0.00307983
0.00307963
0.00307943
0.00307924
0.00307905
0.00307885
0.00307866
0.00307847
0.00307828
0.00307809
0.0030779
0.00307771
0.00307753
0.00307734
0.00307715
0.00307697
0.00307678
0.0030766
0.00307642
0.00307624
0.00307605
0.00307587
0.00307569
0.00307551
0.00307533
0.00307516
0.00307498
0.0030748
0.00307463
0.00307445
0.00307428
0.0030741
0.00307393
0.00307376
0.00307359
0.00307342
0.00307325
0.00307308
0.00307291
0.00307274
0.00307257
0.00307241
0.00307224
0.00307208
0.00307191
0.00307175
0.00307159
0.00307142
0.00307126
0.0030711
0.00307094
0.00307078
0.00307062
0.00307046
0.0030703
0.00307015
0.00306999
0.00306984
0.00306968
0.00306953
0.00306937
0.00306922
0.00306907
0.00306892
0.00306876
0.00306861
0.00306846
0.00306831
0.00306817
0.00306802
0.00306787
0.00306772
0.00306758
0.00306743
0.00306729
0.00306714
0.003067
0.00306686
0.00306672
0.00306657
0.00306643
0.00306629
0.00306615
0.00306601
0.00306588
0.00306574
0.0030656
0.00306546
0.00306533
0.00306519
0.00306506
0.00306492
0.00306479
0.00306466
0.00306452
0.00306439
0.00306426
0.00306413
0.003064
0.00306387
0.00306374
0.00306361
0.00306349
0.00306336
0.00306323
0.00306311
0.00306298
0.00306286
0.00306273
0.00306261
0.00306248
0.00306236
0.00306224
0.00306212
0.003062
0.00306188
0.00306176
0.00306164
0.00306152
0.0030614
0.00306128
0.00306116
0.00306105
0.00306093
0.00306082
0.0030607
0.00306059
0.00306047
0.00306036
0.00306025
0.00306013
0.00306002
0.00305991
0.0030598
0.00305969
0.00305958
0.00305947
0.00305936
0.00305925
0.00305914
0.00305904
0.00305893
0.00305882
0.00305872
0.00305861
0.00305851
0.0030584
0.0030583
0.0030582
0.00305809
0.00305799
0.00305789
0.00305779
0.00305769
0.00305759
0.00305749
0.00305739
0.00305729
0.00305719
0.00305709
0.00305699
0.0030569
0.0030568
0.0030567
0.00305661
0.00305651
0.00305642
0.00305632
0.00305623
0.00305613
0.00305604
0.00305595
0.00305586
0.00305576
0.00305567
0.00305558
0.00305549
0.0030554
0.00305531
0.00305522
0.00305513
0.00305504
0.00305496
0.00305487
0.00305478
0.00305469
0.00305461
0.00305452
0.00305444
0.00305435
0.00305427
0.00305418
0.0030541
0.00305402
0.00305393
0.00305385
0.00305377
0.00305368
0.0030536
0.00305352
0.00305344
0.00305336
0.00305328
0.0030532
0.00305312
0.00305304
0.00305297
0.00305289
0.00305281
0.00305273
0.00305266
0.00305258
0.0030525
0.00305243
0.00305235
0.00305228
0.0030522
0.00305213
0.00305205
0.00305198
0.00305191
0.00305183
0.00305176
0.00305169
0.00305162
0.00305154
0.00305147
0.0030514
0.00305133
0.00305126
0.00305119
0.00305112
0.00305105
0.00305098
0.00305092
0.00305085
0.00305078
0.00305071
0.00305065
0.00305058
0.00305051
0.00305045
0.00305038
0.00305031
0.00305025
0.00305018
0.00305012
0.00305006
0.00304999
0.00304993
0.00304987
0.0030498
0.00304974
0.00304968
0.00304961
0.00304955
0.00304949
0.00304943
0.00304937
0.00304931
0.00304925
0.00304919
0.00304913
0.00304907
0.00304901
0.00304895
0.00304889
0.00304884
0.00304878
0.00304872
0.00304866
0.00304861
0.00304855
0.00304849
0.00304844
0.00304838
0.00304832
0.00304827
0.00304821
0.00304816
0.0030481
0.00304805
0.003048
0.00304794
0.00304789
0.00304784
0.00304778
0.00304773
0.00304768
0.00304763
0.00304757
0.00304752
0.00304747
0.00304742
0.00304737
0.00304732
0.00304727
0.00304722
0.00304717
0.00304712
0.00304707
0.00304702
0.00304697
0.00304692
0.00304687
0.00304683
0.00304678
0.00304673
0.00304668
0.00304664
0.00304659
0.00304654
0.0030465
0.00304645
0.0030464
0.00304636
0.00304631
0.00304627
0.00304622
0.00304618
0.00304613
0.00304609
0.00304604
0.003046
0.00304596
0.00304591
0.00304587
0.00304583
0.00304579
0.00304574
0.0030457
0.00304566
0.00304562
0.00304557
0.00304553
0.00304549
0.00304545
0.00304541
0.00304537
0.00304533
0.00304529
0.00304525
0.00304521
0.00304517
0.00304513
0.00304509
0.00304505
0.00304501
0.00304498
0.00304494
0.0030449
0.00304486
0.00304482
0.00304479
0.00304475
0.00304471
0.00304468
0.00304464
0.0030446
0.00304457
0.00304453
0.00304449
0.00304446
0.00304442
0.00304439
0.00304435
0.00304432
0.00304428
0.00304425
0.00304421
0.00304418
0.00304415
0.00304411
0.00304408
0.00304404
0.00304401
0.00304398
0.00304395
0.00304391
0.00304388
0.00304385
0.00304382
0.00304378
0.00304375
0.00304372
0.00304369
0.00304366
0.00304363
0.0030436
0.00304356
0.00304353
0.0030435
0.00304347
0.00304344
0.00304341
0.00304338
0.00304335
0.00304332
0.00304329
0.00304327
0.00304324
0.00304321
0.00304318
0.00304315
0.00304312
0.00304309
0.00304307
0.00304304
0.00304301
0.00304298
0.00304296
0.00304293
0.0030429
0.00304288
0.00304285
0.00304282
0.0030428
0.00304277
0.00304274
0.00304272
0.00304269
0.00304267
0.00304264
0.00304262
0.00304259
0.00304257
0.00304254
0.00304252
0.00304249
0.00304247
0.00304244
0.00304242
0.0030424
0.00304237
0.00304235
0.00304232
0.0030423
0.00304228
0.00304225
0.00304223
0.00304221
0.00304219
0.00304216
0.00304214
0.00304212
0.0030421
0.00304207
0.00304205
0.00304203
0.00304201
0.00304199
0.00304197
0.00304195
0.00304193
0.0030419
0.00304188
0.00304186
0.00304184
0.00304182
0.0030418
0.00304178
0.00304176
0.00304174
0.00304172
0.0030417
0.00304168
0.00304166
0.00304164
0.00304163
0.00304161
0.00304159
0.00304157
0.00304155
0.00304153
0.00304151
0.0030415
0.00304148
0.00304146
0.00304144
0.00304142
0.00304141
0.00304139
0.00304137
0.00304136
0.00304134
0.00304132
0.0030413
0.00304129
0.00304127
0.00304125
0.00304124
0.00304122
0.00304121
0.00304119
0.00304117
0.00304116
0.00304114
0.00304113
0.00304111
0.0030411
0.00304108
0.00304107
0.00304105
0.00304104
0.00304102
0.00304101
0.00304099
0.00304098
0.00304096
0.00304095
0.00304094
0.00304092
0.00304091
0.00304089
0.00304088
0.00304087
0.00304085
0.00304084
0.00304083
0.00304081
0.0030408
0.00304079
0.00304077
0.00304076
0.00304075
0.00304074
0.00304072
0.00304071
0.0030407
0.00304069
0.00304068
0.00304066
0.00304065
0.00304064
0.00304063
0.00304062
0.0030406
0.00304059
0.00304058
0.00304057
0.00304056
0.00304055
0.00304054
0.00304053
0.00304052
0.00304051
0.0030405
0.00304049
0.00304048
0.00304046
0.00304045
0.00304044
0.00304043
0.00304043
0.00304042
0.00304041
0.0030404
0.00304039
0.00304038
0.00304037
0.00304036
0.00304035
0.00304034
0.00304033
0.00304032
0.00304031
0.00304031
0.0030403
0.00304029
0.00304028
0.00304027
0.00304026
0.00304026
0.00304025
0.00304024
0.00304023
0.00304022
0.00304022
0.00304021
0.0030402
0.00304019
0.00304019
0.00304018
0.00304017
0.00304016
0.00304016
0.00304015
0.00304014
0.00304014
0.00304013
0.00304012
0.00304012
0.00304011
0.0030401
0.0030401
0.00304009
0.00304008
0.00304008
0.00304007
0.00304006
0.00304006
0.00304005
0.00304005
0.00304004
0.00304004
0.00304003
0.00304002
0.00304002
0.00304001
0.00304001
0.00304
0.00304
0.00303999
0.00303999
0.00303998
0.00303998
0.00303997
0.00303997
0.00303996
0.00303996
0.00303995
0.00303995
0.00303995
0.00303994
0.00303994
0.00303993
0.00303993
0.00303992
0.00303992
0.00303992
0.00303991
0.00303991
0.0030399
0.0030399
0.0030399
0.00303989
0.00303989
0.00303989
0.00303988
0.00303988
0.00303988
0.00303987
0.00303987
0.00303987
0.00303986
0.00303986
0.00303986
0.00303986
0.00303985
0.00303985
0.00303985
0.00303984
0.00303984
0.00303984
0.00303984
0.00303983
0.00303983
0.00303983
0.00303983
0.00303982
0.00303982
0.00303982
0.00303982
0.00303982
0.00303981
0.00303981
0.00303981
0.00303981
0.00303981
0.00303981
0.0030398
0.0030398
0.0030398
0.0030398
0.0030398
0.0030398
0.00303979
0.00303979
0.00303979
0.00303979
0.00303979
0.00303979
0.00303979
0.00303979
0.00303979
0.00303978
0.00303978
0.00303978
0.00303978
0.00303978
0.00303978
0.00303978
0.00303978
0.00303978
0.00303978
0.00303978
0.00303978
0.00303978
0.00303978
0.00303977
0.00303977
0.00303977
0.00303977
0.00303977
0.00303977
0.00303977
0.00303977
0.00303977
0.00303977
0.00303977
0.00303977
0.00303977
0.00303977
0.00303977
0.00303977
0.00303977
0.00303977
0.00303977
0.00303977
0.00303977
0.00303977
0.00303978
0.00303978
0.00303978
0.00303978
0.00303978
0.00303978
0.00303978
0.00303978
0.00303978
0.00303978
0.00303978
0.00303978
0.00303978
0.00303978
0.00303978
0.00303978
0.00303978
0.00303979
0.00303979
0.00303979
0.00303979
0.00303979
0.00303979
0.00303979
0.00303979
0.00303979
0.00303979
0.00303979
0.0030398
0.0030398
0.0030398
0.0030398
0.0030398
0.0030398
0.0030398
0.0030398
0.0030398
0.0030398
0.00303981
0.00303981
0.00303981
0.00303981
0.00303981
0.00303981
0.00303981
0.00303981
0.00303982
0.00303982
0.00303982
0.00303982
0.00303982
0.00303982
0.00303982
0.00303982
0.00303983
0.00303983
0.00303983
0.00303983
0.00303983
0.00303983
0.00303983
0.00303984
0.00303984
0.00303984
0.00303984
0.00303984
0.00303984
0.00303984
0.00303984
0.00303985
0.00303985
0.00303985
0.00303985
0.00303985
0.00303985
0.00303985
0.00303986
0.00303986
0.00303986
0.00303986
0.00303986
0.00303986
0.00303986
0.00303986
0.00303987
0.00303987
0.00303987
0.00303987
0.00303987
0.00303987
0.00303987
0.00303987
0.00303987
0.00303988
0.00303988
0.00303988
0.00303988
0.00303988
0.00303988
0.00303988
0.00303988
0.00303988
0.00303988
0.00303989
0.00303989
0.00303989
0.00303989
0.00303989
0.00303989
0.00303989
0.00303989
0.00303989
0.00303989
0.00303989
0.00303989
0.00303989
0.0030399
0.0030399
0.0030399
0.0030399
0.0030399
0.0030399
0.0030399
0.0030399
0.0030399
0.0030399
0.0030399
0.0030399
0.0030399
0.0030399
0.0030399
0.0030399
0.0030399
0.0030399
0.0030399
0.0030399
0.0030399
0.0030399
0.0030399
0.0030399
0.0030399
0.0030399
0.0030399
0.0030399
0.0030399
0.00303989
0.00303989
0.00303989
0.00303989
0.00303989
0.00303989
0.00303989
0.00303989
0.00303989
0.00303989
0.00303989
0.00303989
0.00303989
0.00303989
0.00303988
0.00303988
0.00303988
0.00303988
0.00303988
0.00303988
0.00303988
0.00303988
0.00303988
0.00303988
0.00303987
0.00303987
0.00303987
0.00303987
0.00303987
0.00303987
0.00303987
0.00303987
0.00303986
0.00303986
0.00303986
0.00303986
0.00303986
0.00303986
0.00303986
0.00303986
0.00303985
0.00303985
0.00303985
0.00303985
0.00303985
0.00303985
0.00303985
0.00303985
0.00303984
0.00303984
0.00303984
0.00303984
0.00303984
0.00303984
0.00303984
0.00303983
0.00303983
0.00303983
0.00303983
0.00303983
0.00303983
0.00303983
0.00303983
0.00303982
0.00303982
0.00303982
0.00303982
0.00303982
0.00303982
0.00303982
0.00303982
0.00303981
0.00303981
0.00303981
0.00303981
0.00303981
0.00303981
0.00303981
0.00303981
0.0030398
0.0030398
0.0030398
0.0030398
0.0030398
0.0030398
0.0030398
0.0030398
0.0030398
0.00303979
0.00303979
0.00303979
0.00303979
0.00303979
0.00303979
0.00303979
0.00303979
0.00303979
0.00303979
0.00303979
0.00303978
0.00303978
0.00303978
0.00303978
0.00303978
0.00303978
0.00303978
0.00303978
0.00303978
0.00303978
0.00303978
0.00303978
0.00303978
0.00303978
0.00303978
0.00303977
0.00303977
0.00303977
0.00303977
0.00303977
0.00303977
0.00303977
0.00303977
0.00303977
0.00303977
0.00303977
0.00303977
0.00303977
0.00303977
0.00303977
0.00303977
0.00303977
0.00303977
0.00303977
0.00303977
0.00303977
0.00303977
0.00303977
0.00303977
0.00303977
0.00303977
0.00303977
0.00303978
0.00303978
0.00303978
0.00303978
0.00303978
0.00303978
0.00303978
0.00303978
0.00303978
0.00303978
0.00303978
0.00303978
0.00303978
0.00303978
0.00303979
0.00303979
0.00303979
0.00303979
0.00303979
0.00303979
0.00303979
0.00303979
0.0030398
0.0030398
0.0030398
0.0030398
0.0030398
0.0030398
0.00303981
0.00303981
0.00303981
0.00303981
0.00303981
0.00303981
0.00303982
0.00303982
0.00303982
0.00303982
0.00303983
0.00303983
0.00303983
0.00303983
0.00303983
0.00303984
0.00303984
0.00303984
0.00303985
0.00303985
0.00303985
0.00303985
0.00303986
0.00303986
0.00303986
0.00303987
0.00303987
0.00303987
0.00303987
0.00303988
0.00303988
0.00303989
0.00303989
0.00303989
0.0030399
0.0030399
0.0030399
0.00303991
0.00303991
0.00303991
0.00303992
0.00303992
0.00303993
0.00303993
0.00303994
0.00303994
0.00303994
0.00303995
0.00303995
0.00303996
0.00303996
0.00303997
0.00303997
0.00303998
0.00303998
0.00303999
0.00303999
0.00304
0.00304
0.00304001
0.00304001
0.00304002
0.00304002
0.00304003
0.00304003
0.00304004
0.00304005
0.00304005
0.00304006
0.00304006
0.00304007
0.00304008
0.00304008
0.00304009
0.00304009
0.0030401
0.00304011
0.00304011
0.00304012
0.00304013
0.00304013
0.00304014
0.00304015
0.00304015
0.00304016
0.00304017
0.00304018
0.00304018
0.00304019
0.0030402
0.00304021
0.00304021
0.00304022
0.00304023
0.00304024
0.00304025
0.00304025
0.00304026
0.00304027
0.00304028
0.00304029
0.00304029
0.0030403
0.00304031
0.00304032
0.00304033
0.00304034
0.00304035
0.00304036
0.00304037
0.00304038
0.00304038
0.00304039
0.0030404
0.00304041
0.00304042
0.00304043
0.00304044
0.00304045
0.00304046
0.00304047
0.00304048
0.00304049
0.0030405
0.00304051
0.00304053
0.00304054
0.00304055
0.00304056
0.00304057
0.00304058
0.00304059
0.0030406
0.00304061
0.00304063
0.00304064
0.00304065
0.00304066
0.00304067
0.00304068
0.0030407
0.00304071
0.00304072
0.00304073
0.00304075
0.00304076
0.00304077
0.00304078
0.0030408
0.00304081
0.00304082
0.00304084
0.00304085
0.00304086
0.00304088
0.00304089
0.0030409
0.00304092
0.00304093
0.00304095
0.00304096
0.00304098
0.00304099
0.003041
0.00304102
0.00304103
0.00304105
0.00304106
0.00304108
0.00304109
0.00304111
0.00304112
0.00304114
0.00304116
0.00304117
0.00304119
0.0030412
0.00304122
0.00304124
0.00304125
0.00304127
0.00304129
0.0030413
0.00304132
0.00304134
0.00304135
0.00304137
0.00304139
0.0030414
0.00304142
0.00304144
0.00304146
0.00304148
0.00304149
0.00304151
0.00304153
0.00304155
0.00304157
0.00304159
0.0030416
0.00304162
0.00304164
0.00304166
0.00304168
0.0030417
0.00304172
0.00304174
0.00304176
0.00304178
0.0030418
0.00304182
0.00304184
0.00304186
0.00304188
0.0030419
0.00304192
0.00304194
0.00304196
0.00304199
0.00304201
0.00304203
0.00304205
0.00304207
0.00304209
0.00304212
0.00304214
0.00304216
0.00304218
0.00304221
0.00304223
0.00304225
0.00304227
0.0030423
0.00304232
0.00304234
0.00304237
0.00304239
0.00304242
0.00304244
0.00304246
0.00304249
0.00304251
0.00304254
0.00304256
0.00304259
0.00304261
0.00304264
0.00304266
0.00304269
0.00304272
0.00304274
0.00304277
0.00304279
0.00304282
0.00304285
0.00304287
0.0030429
0.00304293
0.00304295
0.00304298
0.00304301
0.00304304
0.00304306
0.00304309
0.00304312
0.00304315
0.00304318
0.00304321
0.00304323
0.00304326
0.00304329
0.00304332
0.00304335
0.00304338
0.00304341
0.00304344
0.00304347
0.0030435
0.00304353
0.00304356
0.00304359
0.00304362
0.00304365
0.00304369
0.00304372
0.00304375
0.00304378
0.00304381
0.00304384
0.00304388
0.00304391
0.00304394
0.00304397
0.00304401
0.00304404
0.00304407
0.00304411
0.00304414
0.00304418
0.00304421
0.00304424
0.00304428
0.00304431
0.00304435
0.00304438
0.00304442
0.00304445
0.00304449
0.00304453
0.00304456
0.0030446
0.00304464
0.00304467
0.00304471
0.00304475
0.00304478
0.00304482
0.00304486
0.0030449
0.00304493
0.00304497
0.00304501
0.00304505
0.00304509
0.00304513
0.00304517
0.00304521
0.00304525
0.00304529
0.00304533
0.00304537
0.00304541
0.00304545
0.00304549
0.00304553
0.00304557
0.00304561
0.00304566
0.0030457
0.00304574
0.00304578
0.00304582
0.00304587
0.00304591
0.00304595
0.003046
0.00304604
0.00304609
0.00304613
0.00304617
0.00304622
0.00304626
0.00304631
0.00304636
0.0030464
0.00304645
0.00304649
0.00304654
0.00304659
0.00304663
0.00304668
0.00304673
0.00304678
0.00304682
0.00304687
0.00304692
0.00304697
0.00304702
0.00304707
0.00304712
0.00304716
0.00304721
0.00304726
0.00304731
0.00304737
0.00304742
0.00304747
0.00304752
0.00304757
0.00304762
0.00304767
0.00304773
0.00304778
0.00304783
0.00304789
0.00304794
0.00304799
0.00304805
0.0030481
0.00304816
0.00304821
0.00304827
0.00304832
0.00304838
0.00304843
0.00304849
0.00304855
0.0030486
0.00304866
0.00304872
0.00304877
0.00304883
0.00304889
0.00304895
0.00304901
0.00304907
0.00304913
0.00304919
0.00304925
0.00304931
0.00304937
0.00304943
0.00304949
0.00304955
0.00304961
0.00304967
0.00304974
0.0030498
0.00304986
0.00304993
0.00304999
0.00305005
0.00305012
0.00305018
0.00305025
0.00305031
0.00305038
0.00305044
0.00305051
0.00305058
0.00305064
0.00305071
0.00305078
0.00305084
0.00305091
0.00305098
0.00305105
0.00305112
0.00305119
0.00305126
0.00305133
0.0030514
0.00305147
0.00305154
0.00305161
0.00305169
0.00305176
0.00305183
0.0030519
0.00305198
0.00305205
0.00305212
0.0030522
0.00305227
0.00305235
0.00305242
0.0030525
0.00305258
0.00305265
0.00305273
0.00305281
0.00305288
0.00305296
0.00305304
0.00305312
0.0030532
0.00305328
0.00305336
0.00305344
0.00305352
0.0030536
0.00305368
0.00305376
0.00305385
0.00305393
0.00305401
0.0030541
0.00305418
0.00305426
0.00305435
0.00305443
0.00305452
0.00305461
0.00305469
0.00305478
0.00305487
0.00305495
0.00305504
0.00305513