/*--------------------------------*- C++ -*----------------------------------*\
| =========                 |                                                 |
| \\      /  F ield         | OpenFOAM: The Open Source CFD Toolbox           |
|  \\    /   O peration     | Version:  2312                                  |
|   \\  /    A nd           | Website:  www.openfoam.com                      |
|    \\/     M anipulation  |                                                 |
\*---------------------------------------------------------------------------*/
FoamFile
{
    version     2.0;
    format      ascii;
    arch        "LSB;label=32;scalar=64";
    class       volScalarField;
    location    "56.045";
    object      nut;
}
// * * * * * * * * * * * * * * * * * * * * * * * * * * * * * * * * * * * * * //

dimensions      [0 2 -1 0 0 0 0];

internalField   nonuniform List<scalar> 
4000
(
6.93483e-11
1.54211e-10
1.97102e-09
1.42803e-08
6.21467e-08
1.96229e-07
4.97971e-07
1.07609e-06
2.05185e-06
3.53608e-06
5.60682e-06
8.29696e-06
1.15957e-05
1.54601e-05
1.98298e-05
2.46389e-05
2.98239e-05
3.53275e-05
4.10996e-05
4.69241e-05
5.27277e-05
5.87043e-05
6.48737e-05
7.1227e-05
7.77508e-05
8.44317e-05
9.12572e-05
9.82155e-05
0.000105296
0.000112488
0.000119781
0.000127165
0.000134633
0.000142179
0.000149795
0.000157474
0.000165212
0.000173002
0.000180838
0.000188717
0.000196633
0.000204582
0.000212562
0.000220567
0.000228595
0.000236643
0.000244707
0.000252786
0.000260878
0.000268979
0.000277088
0.000285203
0.000293323
0.000301445
0.000309569
0.000317691
0.000325809
0.000333917
0.000342001
0.000350035
0.000357967
0.000365834
0.000373692
0.000381542
0.000389381
0.000397209
0.000405027
0.000412833
0.000420626
0.000428407
0.000436175
0.000443929
0.000451669
0.000459394
0.000467105
0.000474801
0.000482481
0.000490145
0.000497793
0.000505425
0.00051304
0.000520638
0.000528219
0.000535782
0.000543327
0.000550855
0.000558364
0.000565855
0.000573327
0.000580781
0.000588215
0.000595631
0.000603027
0.000610404
0.000617761
0.000625099
0.000632416
0.000639714
0.000646992
0.000654249
0.000661486
0.000668702
0.000675898
0.000683074
0.000690228
0.000697362
0.000704474
0.000711566
0.000718637
0.000725686
0.000732714
0.000739721
0.000746707
0.00075367
0.000760613
0.000767534
0.000774401
0.000781124
0.00078775
0.000794309
0.00080082
0.000807292
0.000813731
0.000820142
0.000826526
0.000832885
0.000839219
0.000845529
0.000851815
0.000858077
0.000864315
0.000870528
0.000876718
0.000882884
0.000889025
0.000895143
0.000901236
0.000907306
0.000913351
0.000919372
0.000925369
0.000931342
0.000937291
0.000943216
0.000949118
0.000954995
0.000960849
0.000966678
0.000972485
0.000978267
0.000984027
0.000989763
0.000995475
0.00100116
0.00100683
0.00101247
0.0010181
0.00102369
0.00102927
0.00103482
0.00104035
0.00104586
0.00105135
0.00105681
0.00106225
0.00106767
0.00107307
0.00107845
0.00108381
0.00108914
0.00109446
0.00109975
0.00110503
0.00111028
0.00111551
0.00112073
0.00112592
0.0011311
0.00113625
0.00114139
0.0011465
0.0011516
0.00115668
0.00116174
0.00116678
0.00117181
0.00117682
0.00118181
0.00118678
0.00119174
0.00119668
0.0012016
0.00120651
0.0012114
0.00121628
0.00122114
0.00122599
0.00123083
0.00123565
0.00124045
0.00124525
0.00125003
0.0012548
0.00125956
0.0012643
0.00126904
0.00127377
0.00127849
0.0012832
0.0012879
0.00129259
0.00129728
0.00130196
0.00130664
0.00131132
0.00131599
0.00132066
0.00132533
0.00133
0.00133467
0.00133934
0.00134402
0.00134871
0.0013534
0.00135811
0.00136282
0.00136755
0.00137229
0.00137705
0.00138183
0.00138663
0.00139146
0.00139632
0.00140121
0.00140613
0.0014111
0.0014161
0.00142115
0.00142626
0.00143142
0.00143665
0.00144194
0.0014473
0.00145275
0.00145828
0.00146391
0.00146964
0.00147549
0.00148146
0.00148755
0.00149379
0.00150019
0.00150675
0.00151349
0.00152042
0.00152756
0.00153491
0.00154251
0.00155034
0.00155845
0.00156682
0.00157547
0.00158441
0.00159364
0.00160314
0.00161289
0.00162285
0.00163296
0.0016431
0.00165314
0.00166287
0.00167199
0.00168012
0.00168673
0.00169169
0.00169665
0.0017016
0.00170654
0.00171148
0.0017164
0.00172132
0.00172624
0.00173114
0.00173604
0.00174093
0.00174582
0.00175069
0.00175556
0.00176043
0.00176528
0.00177013
0.00177498
0.00177981
0.00178464
0.00178946
0.00179428
0.00179909
0.00180389
0.00180869
0.00181348
0.00181826
0.00182304
0.00182781
0.00183257
0.00183733
0.00184208
0.00184682
0.00185156
0.00185629
0.00186102
0.00186574
0.00187045
0.00187516
0.00187986
0.00188456
0.00188925
0.00189393
0.00189861
0.00190328
0.00190795
0.0019126
0.00191726
0.00192191
0.00192655
0.00193119
0.00193582
0.00194044
0.00194506
0.00194967
0.00195428
0.00195888
0.00196348
0.00196807
0.00197265
0.00197723
0.00198181
0.00198638
0.00199094
0.0019955
0.00200005
0.00200459
0.00200913
0.00201367
0.0020182
0.00202272
0.00202724
0.00203176
0.00203626
0.00204077
0.00204526
0.00204976
0.00205424
0.00205872
0.0020632
0.00206767
0.00207214
0.0020766
0.00208105
0.0020855
0.00208994
0.00209438
0.00209882
0.00210324
0.00210767
0.00211208
0.0021165
0.0021209
0.0021253
0.0021297
0.00213409
0.00213848
0.00214286
0.00214723
0.0021516
0.00215597
0.00216033
0.00216468
0.00216903
0.00217337
0.00217771
0.00218205
0.00218637
0.0021907
0.00219501
0.00219933
0.00220363
0.00220793
0.00221223
0.00221652
0.00222081
0.00222509
0.00222936
0.00223363
0.00223789
0.00224215
0.0022464
0.00225065
0.00225489
0.00225913
0.00226336
0.00226759
0.00227181
0.00227602
0.00228023
0.00228444
0.00228864
0.00229283
0.00229702
0.0023012
0.00230537
0.00230954
0.00231371
0.00231787
0.00232202
0.00232617
0.00233031
0.00233445
0.00233858
0.00234271
0.00234683
0.00235094
0.00235505
0.00235915
0.00236325
0.00236734
0.00237142
0.0023755
0.00237957
0.00238364
0.0023877
0.00239176
0.00239581
0.00239985
0.00240389
0.00240792
0.00241194
0.00241596
0.00241997
0.00242398
0.00242798
0.00243197
0.00243596
0.00243994
0.00244392
0.00244789
0.00245185
0.00245581
0.00245976
0.0024637
0.00246764
0.00247157
0.00247549
0.00247941
0.00248332
0.00248722
0.00249112
0.00249501
0.0024989
0.00250277
0.00250665
0.00251051
0.00251437
0.00251822
0.00252206
0.0025259
0.00252973
0.00253355
0.00253737
0.00254118
0.00254498
0.00254878
0.00255257
0.00255635
0.00256012
0.00256389
0.00256765
0.0025714
0.00257515
0.00257888
0.00258261
0.00258634
0.00259005
0.00259376
0.00259746
0.00260116
0.00260484
0.00260852
0.00261219
0.00261586
0.00261951
0.00262316
0.0026268
0.00263044
0.00263406
0.00263768
0.00264129
0.00264489
0.00264848
0.00265207
0.00265565
0.00265922
0.00266278
0.00266634
0.00266988
0.00267342
0.00267695
0.00268047
0.00268399
0.00268749
0.00269099
0.00269448
0.00269796
0.00270143
0.0027049
0.00270835
0.0027118
0.00271524
0.00271867
0.00272209
0.00272551
0.00272891
0.00273231
0.0027357
0.00273908
0.00274245
0.00274581
0.00274916
0.00275251
0.00275584
0.00275917
0.00276249
0.0027658
0.0027691
0.00277239
0.00277567
0.00277895
0.00278221
0.00278547
0.00278871
0.00279195
0.00279518
0.0027984
0.00280161
0.00280481
0.002808
0.00281118
0.00281436
0.00281752
0.00282068
0.00282382
0.00282696
0.00283009
0.0028332
0.00283631
0.00283941
0.0028425
0.00284558
0.00284865
0.00285171
0.00285476
0.0028578
0.00286083
0.00286386
0.00286687
0.00286987
0.00287286
0.00287585
0.00287882
0.00288179
0.00288474
0.00288769
0.00289062
0.00289355
0.00289646
0.00289937
0.00290226
0.00290515
0.00290802
0.00291089
0.00291374
0.00291659
0.00291943
0.00292225
0.00292507
0.00292787
0.00293067
0.00293346
0.00293623
0.002939
0.00294175
0.0029445
0.00294723
0.00294996
0.00295267
0.00295538
0.00295807
0.00296076
0.00296343
0.0029661
0.00296875
0.00297139
0.00297403
0.00297665
0.00297926
0.00298186
0.00298446
0.00298704
0.00298961
0.00299217
0.00299472
0.00299726
0.00299979
0.00300231
0.00300482
0.00300732
0.00300981
0.00301229
0.00301476
0.00301722
0.00301966
0.0030221
0.00302453
0.00302694
0.00302935
0.00303174
0.00303413
0.0030365
0.00303887
0.00304122
0.00304356
0.00304589
0.00304822
0.00305053
0.00305283
0.00305512
0.0030574
0.00305967
0.00306193
0.00306418
0.00306642
0.00306865
0.00307086
0.00307307
0.00307527
0.00307745
0.00307963
0.00308179
0.00308395
0.00308609
0.00308823
0.00309035
0.00309246
0.00309457
0.00309666
0.00309874
0.00310081
0.00310287
0.00310492
0.00310696
0.00310899
0.00311101
0.00311302
0.00311502
0.00311701
0.00311898
0.00312095
0.00312291
0.00312486
0.00312679
0.00312872
0.00313063
0.00313254
0.00313443
0.00313632
0.00313819
0.00314006
0.00314191
0.00314375
0.00314559
0.00314741
0.00314922
0.00315103
0.00315282
0.0031546
0.00315637
0.00315813
0.00315988
0.00316163
0.00316336
0.00316508
0.00316679
0.00316849
0.00317018
0.00317186
0.00317353
0.00317519
0.00317684
0.00317848
0.00318011
0.00318173
0.00318334
0.00318494
0.00318654
0.00318812
0.00318969
0.00319125
0.0031928
0.00319434
0.00319587
0.00319739
0.0031989
0.0032004
0.0032019
0.00320338
0.00320485
0.00320631
0.00320776
0.00320921
0.00321064
0.00321206
0.00321348
0.00321488
0.00321628
0.00321766
0.00321904
0.0032204
0.00322176
0.00322311
0.00322444
0.00322577
0.00322709
0.0032284
0.0032297
0.00323099
0.00323227
0.00323354
0.0032348
0.00323605
0.0032373
0.00323853
0.00323975
0.00324097
0.00324218
0.00324337
0.00324456
0.00324574
0.00324691
0.00324807
0.00324922
0.00325036
0.00325149
0.00325262
0.00325373
0.00325484
0.00325593
0.00325702
0.0032581
0.00325917
0.00326023
0.00326129
0.00326233
0.00326336
0.00326439
0.00326541
0.00326642
0.00326741
0.00326841
0.00326939
0.00327036
0.00327133
0.00327228
0.00327323
0.00327417
0.0032751
0.00327602
0.00327694
0.00327784
0.00327874
0.00327963
0.00328051
0.00328138
0.00328224
0.0032831
0.00328394
0.00328478
0.00328561
0.00328643
0.00328725
0.00328805
0.00328885
0.00328964
0.00329042
0.00329119
0.00329196
0.00329272
0.00329347
0.00329421
0.00329494
0.00329566
0.00329638
0.00329709
0.00329779
0.00329849
0.00329917
0.00329985
0.00330052
0.00330118
0.00330184
0.00330249
0.00330313
0.00330376
0.00330438
0.003305
0.00330561
0.00330621
0.0033068
0.00330739
0.00330797
0.00330854
0.00330911
0.00330966
0.00331021
0.00331076
0.00331129
0.00331182
0.00331234
0.00331285
0.00331336
0.00331386
0.00331435
0.00331484
0.00331531
0.00331578
0.00331625
0.0033167
0.00331715
0.0033176
0.00331803
0.00331846
0.00331888
0.0033193
0.00331971
0.00332011
0.0033205
0.00332089
0.00332127
0.00332165
0.00332201
0.00332237
0.00332273
0.00332308
0.00332342
0.00332375
0.00332408
0.0033244
0.00332472
0.00332503
0.00332533
0.00332562
0.00332591
0.0033262
0.00332647
0.00332674
0.00332701
0.00332726
0.00332752
0.00332776
0.003328
0.00332823
0.00332846
0.00332868
0.0033289
0.0033291
0.00332931
0.0033295
0.00332969
0.00332988
0.00333006
0.00333023
0.0033304
0.00333056
0.00333071
0.00333086
0.003331
0.00333114
0.00333127
0.0033314
0.00333152
0.00333163
0.00333174
0.00333185
0.00333194
0.00333204
0.00333212
0.0033322
0.00333228
0.00333235
0.00333241
0.00333247
0.00333252
0.00333257
0.00333262
0.00333265
0.00333268
0.00333271
0.00333273
0.00333275
0.00333276
0.00333277
0.00333277
0.00333276
0.00333275
0.00333274
0.00333272
0.00333269
0.00333266
0.00333262
0.00333258
0.00333254
0.00333249
0.00333243
0.00333237
0.00333231
0.00333224
0.00333216
0.00333208
0.003332
0.00333191
0.00333181
0.00333171
0.00333161
0.0033315
0.00333139
0.00333127
0.00333115
0.00333102
0.00333089
0.00333075
0.00333061
0.00333046
0.00333031
0.00333016
0.00333
0.00332984
0.00332967
0.0033295
0.00332932
0.00332914
0.00332895
0.00332876
0.00332857
0.00332837
0.00332817
0.00332796
0.00332775
0.00332753
0.00332731
0.00332709
0.00332686
0.00332663
0.00332639
0.00332615
0.0033259
0.00332565
0.0033254
0.00332514
0.00332488
0.00332462
0.00332435
0.00332408
0.0033238
0.00332352
0.00332323
0.00332295
0.00332265
0.00332236
0.00332206
0.00332175
0.00332145
0.00332113
0.00332082
0.0033205
0.00332018
0.00331985
0.00331952
0.00331919
0.00331885
0.00331851
0.00331817
0.00331782
0.00331747
0.00331711
0.00331675
0.00331639
0.00331603
0.00331566
0.00331528
0.00331491
0.00331453
0.00331415
0.00331376
0.00331337
0.00331298
0.00331258
0.00331218
0.00331178
0.00331138
0.00331097
0.00331055
0.00331014
0.00330972
0.0033093
0.00330887
0.00330845
0.00330801
0.00330758
0.00330714
0.0033067
0.00330626
0.00330581
0.00330536
0.00330491
0.00330446
0.003304
0.00330354
0.00330307
0.0033026
0.00330213
0.00330166
0.00330119
0.00330071
0.00330023
0.00329974
0.00329926
0.00329877
0.00329827
0.00329778
0.00329728
0.00329678
0.00329628
0.00329577
0.00329526
0.00329475
0.00329424
0.00329372
0.00329321
0.00329268
0.00329216
0.00329164
0.00329111
0.00329058
0.00329004
0.00328951
0.00328897
0.00328843
0.00328788
0.00328734
0.00328679
0.00328624
0.00328569
0.00328513
0.00328458
0.00328402
0.00328346
0.00328289
0.00328233
0.00328176
0.00328119
0.00328062
0.00328004
0.00327947
0.00327889
0.00327831
0.00327773
0.00327714
0.00327656
0.00327597
0.00327538
0.00327478
0.00327419
0.00327359
0.00327299
0.00327239
0.00327179
0.00327119
0.00327058
0.00326998
0.00326937
0.00326876
0.00326814
0.00326753
0.00326691
0.0032663
0.00326568
0.00326506
0.00326443
0.00326381
0.00326318
0.00326255
0.00326193
0.0032613
0.00326066
0.00326003
0.00325939
0.00325876
0.00325812
0.00325748
0.00325684
0.0032562
0.00325555
0.00325491
0.00325426
0.00325361
0.00325297
0.00325232
0.00325166
0.00325101
0.00325036
0.0032497
0.00324905
0.00324839
0.00324773
0.00324707
0.00324641
0.00324575
0.00324508
0.00324442
0.00324375
0.00324309
0.00324242
0.00324175
0.00324108
0.00324041
0.00323974
0.00323907
0.0032384
0.00323772
0.00323705
0.00323637
0.0032357
0.00323502
0.00323434
0.00323366
0.00323299
0.00323231
0.00323162
0.00323094
0.00323026
0.00322958
0.0032289
0.00322821
0.00322753
0.00322684
0.00322616
0.00322547
0.00322478
0.0032241
0.00322341
0.00322272
0.00322203
0.00322134
0.00322065
0.00321996
0.00321927
0.00321858
0.00321789
0.0032172
0.00321651
0.00321581
0.00321512
0.00321443
0.00321374
0.00321304
0.00321235
0.00321165
0.00321096
0.00321027
0.00320957
0.00320888
0.00320818
0.00320749
0.0032068
0.0032061
0.00320541
0.00320471
0.00320402
0.00320332
0.00320263
0.00320193
0.00320124
0.00320054
0.00319985
0.00319915
0.00319846
0.00319776
0.00319707
0.00319638
0.00319568
0.00319499
0.0031943
0.0031936
0.00319291
0.00319222
0.00319152
0.00319083
0.00319014
0.00318945
0.00318876
0.00318807
0.00318737
0.00318668
0.00318599
0.0031853
0.00318462
0.00318393
0.00318324
0.00318255
0.00318186
0.00318118
0.00318049
0.0031798
0.00317912
0.00317843
0.00317775
0.00317706
0.00317638
0.0031757
0.00317501
0.00317433
0.00317365
0.00317297
0.00317229
0.00317161
0.00317093
0.00317025
0.00316958
0.0031689
0.00316822
0.00316755
0.00316687
0.0031662
0.00316553
0.00316485
0.00316418
0.00316351
0.00316284
0.00316217
0.0031615
0.00316083
0.00316017
0.0031595
0.00315883
0.00315817
0.00315751
0.00315684
0.00315618
0.00315552
0.00315486
0.0031542
0.00315354
0.00315288
0.00315223
0.00315157
0.00315092
0.00315026
0.00314961
0.00314896
0.00314831
0.00314766
0.00314701
0.00314636
0.00314571
0.00314507
0.00314442
0.00314378
0.00314314
0.0031425
0.00314186
0.00314122
0.00314058
0.00313994
0.0031393
0.00313867
0.00313803
0.0031374
0.00313677
0.00313614
0.00313551
0.00313488
0.00313425
0.00313362
0.003133
0.00313238
0.00313175
0.00313113
0.00313051
0.00312989
0.00312927
0.00312865
0.00312804
0.00312742
0.00312681
0.0031262
0.00312559
0.00312498
0.00312437
0.00312376
0.00312315
0.00312255
0.00312195
0.00312134
0.00312074
0.00312014
0.00311954
0.00311894
0.00311835
0.00311775
0.00311716
0.00311657
0.00311598
0.00311539
0.0031148
0.00311421
0.00311362
0.00311304
0.00311245
0.00311187
0.00311129
0.00311071
0.00311013
0.00310956
0.00310898
0.00310841
0.00310783
0.00310726
0.00310669
0.00310612
0.00310555
0.00310499
0.00310442
0.00310386
0.0031033
0.00310273
0.00310217
0.00310162
0.00310106
0.0031005
0.00309995
0.00309939
0.00309884
0.00309829
0.00309774
0.0030972
0.00309665
0.0030961
0.00309556
0.00309502
0.00309448
0.00309394
0.0030934
0.00309286
0.00309233
0.00309179
0.00309126
0.00309073
0.0030902
0.00308967
0.00308914
0.00308862
0.00308809
0.00308757
0.00308705
0.00308652
0.00308601
0.00308549
0.00308497
0.00308446
0.00308394
0.00308343
0.00308292
0.00308241
0.0030819
0.00308139
0.00308089
0.00308038
0.00307988
0.00307938
0.00307888
0.00307838
0.00307788
0.00307739
0.00307689
0.0030764
0.00307591
0.00307542
0.00307493
0.00307444
0.00307396
0.00307347
0.00307299
0.0030725
0.00307202
0.00307154
0.00307107
0.00307059
0.00307011
0.00306964
0.00306917
0.0030687
0.00306823
0.00306776
0.00306729
0.00306682
0.00306636
0.0030659
0.00306543
0.00306497
0.00306451
0.00306406
0.0030636
0.00306314
0.00306269
0.00306224
0.00306179
0.00306134
0.00306089
0.00306044
0.00305999
0.00305955
0.00305911
0.00305866
0.00305822
0.00305778
0.00305735
0.00305691
0.00305647
0.00305604
0.00305561
0.00305518
0.00305475
0.00305432
0.00305389
0.00305346
0.00305304
0.00305262
0.00305219
0.00305177
0.00305135
0.00305093
0.00305052
0.0030501
0.00304969
0.00304927
0.00304886
0.00304845
0.00304804
0.00304763
0.00304723
0.00304682
0.00304642
0.00304601
0.00304561
0.00304521
0.00304481
0.00304442
0.00304402
0.00304362
0.00304323
0.00304284
0.00304244
0.00304205
0.00304167
0.00304128
0.00304089
0.00304051
0.00304012
0.00303974
0.00303936
0.00303898
0.0030386
0.00303822
0.00303784
0.00303747
0.00303709
0.00303672
0.00303635
0.00303598
0.00303561
0.00303524
0.00303487
0.00303451
0.00303414
0.00303378
0.00303341
0.00303305
0.00303269
0.00303233
0.00303198
0.00303162
0.00303127
0.00303091
0.00303056
0.00303021
0.00302986
0.00302951
0.00302916
0.00302881
0.00302847
0.00302812
0.00302778
0.00302744
0.00302709
0.00302675
0.00302642
0.00302608
0.00302574
0.00302541
0.00302507
0.00302474
0.00302441
0.00302407
0.00302374
0.00302342
0.00302309
0.00302276
0.00302244
0.00302211
0.00302179
0.00302147
0.00302115
0.00302083
0.00302051
0.00302019
0.00301987
0.00301956
0.00301924
0.00301893
0.00301862
0.00301831
0.003018
0.00301769
0.00301738
0.00301707
0.00301677
0.00301646
0.00301616
0.00301585
0.00301555
0.00301525
0.00301495
0.00301465
0.00301436
0.00301406
0.00301377
0.00301347
0.00301318
0.00301289
0.00301259
0.0030123
0.00301201
0.00301173
0.00301144
0.00301115
0.00301087
0.00301058
0.0030103
0.00301002
0.00300974
0.00300946
0.00300918
0.0030089
0.00300862
0.00300835
0.00300807
0.0030078
0.00300753
0.00300725
0.00300698
0.00300671
0.00300644
0.00300618
0.00300591
0.00300564
0.00300538
0.00300511
0.00300485
0.00300459
0.00300432
0.00300406
0.0030038
0.00300355
0.00300329
0.00300303
0.00300278
0.00300252
0.00300227
0.00300201
0.00300176
0.00300151
0.00300126
0.00300101
0.00300076
0.00300051
0.00300027
0.00300002
0.00299978
0.00299953
0.00299929
0.00299905
0.00299881
0.00299857
0.00299833
0.00299809
0.00299785
0.00299762
0.00299738
0.00299714
0.00299691
0.00299668
0.00299645
0.00299621
0.00299598
0.00299575
0.00299552
0.0029953
0.00299507
0.00299484
0.00299462
0.00299439
0.00299417
0.00299395
0.00299372
0.0029935
0.00299328
0.00299306
0.00299285
0.00299263
0.00299241
0.00299219
0.00299198
0.00299176
0.00299155
0.00299134
0.00299113
0.00299092
0.0029907
0.0029905
0.00299029
0.00299008
0.00298987
0.00298967
0.00298946
0.00298926
0.00298905
0.00298885
0.00298865
0.00298844
0.00298824
0.00298804
0.00298784
0.00298765
0.00298745
0.00298725
0.00298706
0.00298686
0.00298667
0.00298647
0.00298628
0.00298609
0.0029859
0.0029857
0.00298551
0.00298533
0.00298514
0.00298495
0.00298476
0.00298458
0.00298439
0.00298421
0.00298402
0.00298384
0.00298366
0.00298348
0.00298329
0.00298311
0.00298293
0.00298276
0.00298258
0.0029824
0.00298222
0.00298205
0.00298187
0.0029817
0.00298153
0.00298135
0.00298118
0.00298101
0.00298084
0.00298067
0.0029805
0.00298033
0.00298016
0.00297999
0.00297983
0.00297966
0.0029795
0.00297933
0.00297917
0.00297901
0.00297884
0.00297868
0.00297852
0.00297836
0.0029782
0.00297804
0.00297788
0.00297772
0.00297757
0.00297741
0.00297726
0.0029771
0.00297695
0.00297679
0.00297664
0.00297649
0.00297634
0.00297619
0.00297603
0.00297589
0.00297574
0.00297559
0.00297544
0.00297529
0.00297515
0.002975
0.00297486
0.00297471
0.00297457
0.00297442
0.00297428
0.00297414
0.002974
0.00297386
0.00297372
0.00297358
0.00297344
0.0029733
0.00297316
0.00297303
0.00297289
0.00297276
0.00297262
0.00297249
0.00297235
0.00297222
0.00297209
0.00297196
0.00297182
0.00297169
0.00297156
0.00297143
0.00297131
0.00297118
0.00297105
0.00297092
0.0029708
0.00297067
0.00297055
0.00297042
0.0029703
0.00297017
0.00297005
0.00296993
0.00296981
0.00296969
0.00296957
0.00296945
0.00296933
0.00296921
0.00296909
0.00296897
0.00296886
0.00296874
0.00296863
0.00296851
0.0029684
0.00296828
0.00296817
0.00296806
0.00296794
0.00296783
0.00296772
0.00296761
0.0029675
0.00296739
0.00296728
0.00296717
0.00296707
0.00296696
0.00296685
0.00296675
0.00296664
0.00296654
0.00296643
0.00296633
0.00296623
0.00296612
0.00296602
0.00296592
0.00296582
0.00296572
0.00296562
0.00296552
0.00296542
0.00296532
0.00296523
0.00296513
0.00296503
0.00296494
0.00296484
0.00296475
0.00296465
0.00296456
0.00296447
0.00296437
0.00296428
0.00296419
0.0029641
0.00296401
0.00296392
0.00296383
0.00296374
0.00296365
0.00296356
0.00296348
0.00296339
0.0029633
0.00296322
0.00296313
0.00296305
0.00296297
0.00296288
0.0029628
0.00296272
0.00296264
0.00296255
0.00296247
0.00296239
0.00296231
0.00296223
0.00296216
0.00296208
0.002962
0.00296192
0.00296185
0.00296177
0.00296169
0.00296162
0.00296155
0.00296147
0.0029614
0.00296133
0.00296125
0.00296118
0.00296111
0.00296104
0.00296097
0.0029609
0.00296083
0.00296076
0.00296069
0.00296063
0.00296056
0.00296049
0.00296043
0.00296036
0.0029603
0.00296023
0.00296017
0.0029601
0.00296004
0.00295998
0.00295992
0.00295985
0.00295979
0.00295973
0.00295967
0.00295961
0.00295956
0.0029595
0.00295944
0.00295938
0.00295933
0.00295927
0.00295921
0.00295916
0.0029591
0.00295905
0.002959
0.00295894
0.00295889
0.00295884
0.00295879
0.00295873
0.00295868
0.00295863
0.00295858
0.00295854
0.00295849
0.00295844
0.00295839
0.00295834
0.0029583
0.00295825
0.00295821
0.00295816
0.00295812
0.00295807
0.00295803
0.00295799
0.00295794
0.0029579
0.00295786
0.00295782
0.00295778
0.00295774
0.0029577
0.00295766
0.00295762
0.00295759
0.00295755
0.00295751
0.00295748
0.00295744
0.0029574
0.00295737
0.00295734
0.0029573
0.00295727
0.00295724
0.0029572
0.00295717
0.00295714
0.00295711
0.00295708
0.00295705
0.00295702
0.00295699
0.00295697
0.00295694
0.00295691
0.00295689
0.00295686
0.00295683
0.00295681
0.00295679
0.00295676
0.00295674
0.00295672
0.00295669
0.00295667
0.00295665
0.00295663
0.00295661
0.00295659
0.00295657
0.00295655
0.00295654
0.00295652
0.0029565
0.00295649
0.00295647
0.00295645
0.00295644
0.00295643
0.00295641
0.0029564
0.00295639
0.00295637
0.00295636
0.00295635
0.00295634
0.00295633
0.00295632
0.00295631
0.00295631
0.0029563
0.00295629
0.00295628
0.00295628
0.00295627
0.00295627
0.00295626
0.00295626
0.00295626
0.00295625
0.00295625
0.00295625
0.00295625
0.00295625
0.00295625
0.00295625
0.00295625
0.00295625
0.00295625
0.00295626
0.00295626
0.00295626
0.00295627
0.00295627
0.00295628
0.00295628
0.00295629
0.0029563
0.00295631
0.00295631
0.00295632
0.00295633
0.00295634
0.00295635
0.00295636
0.00295637
0.00295639
0.0029564
0.00295641
0.00295643
0.00295644
0.00295645
0.00295647
0.00295649
0.0029565
0.00295652
0.00295654
0.00295655
0.00295657
0.00295659
0.00295661
0.00295663
0.00295665
0.00295667
0.00295669
0.00295672
0.00295674
0.00295676
0.00295679
0.00295681
0.00295684
0.00295686
0.00295689
0.00295691
0.00295694
0.00295697
0.00295699
0.00295702
0.00295705
0.00295708
0.00295711
0.00295714
0.00295717
0.0029572
0.00295724
0.00295727
0.0029573
0.00295734
0.00295737
0.00295741
0.00295744
0.00295748
0.00295751
0.00295755
0.00295759
0.00295762
0.00295766
0.0029577
0.00295774
0.00295778
0.00295782
0.00295786
0.0029579
0.00295794
0.00295799
0.00295803
0.00295807
0.00295812
0.00295816
0.00295821
0.00295825
0.0029583
0.00295834
0.00295839
0.00295844
0.00295849
0.00295854
0.00295859
0.00295863
0.00295868
0.00295874
0.00295879
0.00295884
0.00295889
0.00295894
0.002959
0.00295905
0.0029591
0.00295916
0.00295921
0.00295927
0.00295933
0.00295938
0.00295944
0.0029595
0.00295956
0.00295962
0.00295967
0.00295973
0.00295979
0.00295986
0.00295992
0.00295998
0.00296004
0.0029601
0.00296017
0.00296023
0.0029603
0.00296036
0.00296043
0.00296049
0.00296056
0.00296063
0.00296069
0.00296076
0.00296083
0.0029609
0.00296097
0.00296104
0.00296111
0.00296118
0.00296125
0.00296133
0.0029614
0.00296147
0.00296155
0.00296162
0.0029617
0.00296177
0.00296185
0.00296192
0.002962
0.00296208
0.00296216
0.00296224
0.00296231
0.00296239
0.00296247
0.00296256
0.00296264
0.00296272
0.0029628
0.00296288
0.00296297
0.00296305
0.00296314
0.00296322
0.00296331
0.00296339
0.00296348
0.00296357
0.00296365
0.00296374
0.00296383
0.00296392
0.00296401
0.0029641
0.00296419
0.00296428
0.00296437
0.00296447
0.00296456
0.00296465
0.00296475
0.00296484
0.00296494
0.00296503
0.00296513
0.00296523
0.00296533
0.00296542
0.00296552
0.00296562
0.00296572
0.00296582
0.00296592
0.00296602
0.00296613
0.00296623
0.00296633
0.00296643
0.00296654
0.00296664
0.00296675
0.00296685
0.00296696
0.00296707
0.00296718
0.00296728
0.00296739
0.0029675
0.00296761
0.00296772
0.00296783
0.00296795
0.00296806
0.00296817
0.00296828
0.0029684
0.00296851
0.00296863
0.00296874
0.00296886
0.00296898
0.00296909
0.00296921
0.00296933
0.00296945
0.00296957
0.00296969
0.00296981
0.00296993
0.00297005
0.00297018
0.0029703
0.00297042
0.00297055
0.00297067
0.0029708
0.00297093
0.00297105
0.00297118
0.00297131
0.00297144
0.00297157
0.0029717
0.00297183
0.00297196
0.00297209
0.00297222
0.00297236
0.00297249
0.00297262
0.00297276
0.00297289
0.00297303
0.00297317
0.0029733
0.00297344
0.00297358
0.00297372
0.00297386
0.002974
0.00297414
0.00297428
0.00297443
0.00297457
0.00297471
0.00297486
0.002975
0.00297515
0.0029753
0.00297544
0.00297559
0.00297574
0.00297589
0.00297604
0.00297619
0.00297634
0.00297649
0.00297664
0.0029768
0.00297695
0.0029771
0.00297726
0.00297741
0.00297757
0.00297773
0.00297788
0.00297804
0.0029782
0.00297836
0.00297852
0.00297868
0.00297884
0.00297901
0.00297917
0.00297933
0.0029795
0.00297966
0.00297983
0.00298
0.00298016
0.00298033
0.0029805
0.00298067
0.00298084
0.00298101
0.00298118
0.00298135
0.00298153
0.0029817
0.00298188
0.00298205
0.00298223
0.0029824
0.00298258
0.00298276
0.00298294
0.00298312
0.0029833
0.00298348
0.00298366
0.00298384
0.00298402
0.00298421
0.00298439
0.00298458
0.00298476
0.00298495
0.00298514
0.00298533
0.00298552
0.00298571
0.0029859
0.00298609
0.00298628
0.00298647
0.00298667
0.00298686
0.00298706
0.00298725
0.00298745
0.00298765
0.00298785
0.00298805
0.00298825
0.00298845
0.00298865
0.00298885
0.00298905
0.00298926
0.00298946
0.00298967
0.00298987
0.00299008
0.00299029
0.0029905
0.00299071
0.00299092
0.00299113
0.00299134
0.00299155
0.00299177
0.00299198
0.0029922
0.00299241
0.00299263
0.00299285
0.00299307
0.00299329
0.00299351
0.00299373
0.00299395
0.00299417
0.0029944
0.00299462
0.00299485
0.00299507
0.0029953
0.00299553
0.00299576
0.00299599
0.00299622
0.00299645
0.00299668
0.00299691
0.00299715
0.00299738
0.00299762
0.00299785
0.00299809
0.00299833
0.00299857
0.00299881
0.00299905
0.00299929
0.00299954
0.00299978
0.00300003
0.00300027
0.00300052
0.00300076
0.00300101
0.00300126
0.00300151
0.00300176
0.00300202
0.00300227
0.00300252
0.00300278
0.00300303
0.00300329
0.00300355
0.00300381
0.00300407
0.00300433
0.00300459
0.00300485
0.00300511
0.00300538
0.00300564
0.00300591
0.00300618
0.00300645
0.00300672
0.00300699
0.00300726
0.00300753
0.0030078
0.00300808
0.00300835
0.00300863
0.0030089
0.00300918
0.00300946
0.00300974
0.00301002
0.0030103
0.00301059
0.00301087
0.00301116
0.00301144
0.00301173
0.00301202
0.00301231
0.0030126
0.00301289
0.00301318
0.00301347
0.00301377
0.00301406
0.00301436
0.00301466
0.00301496
0.00301526
0.00301556
0.00301586
0.00301616
0.00301646
0.00301677
0.00301707
0.00301738
0.00301769
0.003018
0.00301831
0.00301862
0.00301893
0.00301925
0.00301956
0.00301988
0.00302019
0.00302051
0.00302083
0.00302115
0.00302147
0.00302179
0.00302211
0.00302244
0.00302276
0.00302309
0.00302342
0.00302375
0.00302408
0.00302441
0.00302474
0.00302507
0.00302541
0.00302574
0.00302608
0.00302642
0.00302676
0.0030271
0.00302744
0.00302778
0.00302812
0.00302847
0.00302881
0.00302916
0.00302951
0.00302986
0.00303021
0.00303056
0.00303091
0.00303127
0.00303162
0.00303198
0.00303234
0.0030327
0.00303306
0.00303342
0.00303378
0.00303414
0.00303451
0.00303487
0.00303524
0.00303561
0.00303598
0.00303635
0.00303672
0.00303709
0.00303747
0.00303784
0.00303822
0.0030386
0.00303898
0.00303936
0.00303974
0.00304012
0.00304051
0.00304089
0.00304128
0.00304167
0.00304206
0.00304245
0.00304284
0.00304323
0.00304363
0.00304402
0.00304442
0.00304482
0.00304522
0.00304562
0.00304602
0.00304642
0.00304682
0.00304723
0.00304764
0.00304804
0.00304845
0.00304886
0.00304928
0.00304969
0.0030501
0.00305052
0.00305094
0.00305136
0.00305178
0.0030522
0.00305262
0.00305304
0.00305347
0.00305389
0.00305432
0.00305475
0.00305518
0.00305561
0.00305604
0.00305648
0.00305691
0.00305735
0.00305779
0.00305823
0.00305867
0.00305911
0.00305955
0.00306
0.00306044
0.00306089
0.00306134
0.00306179
0.00306224
0.00306269
0.00306315
0.0030636
0.00306406
0.00306452
0.00306497
0.00306544
0.0030659
0.00306636
0.00306683
0.00306729
0.00306776
0.00306823
0.0030687
0.00306917
0.00306964
0.00307012
0.00307059
0.00307107
0.00307155
0.00307203
0.00307251
0.00307299
0.00307347
0.00307396
0.00307444
0.00307493
0.00307542
0.00307591
0.0030764
0.0030769
0.00307739
0.00307789
0.00307838
0.00307888
0.00307938
0.00307988
0.00308039
0.00308089
0.0030814
0.0030819
0.00308241
0.00308292
0.00308343
0.00308394
0.00308446
0.00308497
0.00308549
0.00308601
0.00308653
0.00308705
0.00308757
0.00308809
0.00308862
0.00308914
0.00308967
0.0030902
0.00309073
0.00309126
0.00309179
0.00309233
0.00309286
0.0030934
0.00309394
0.00309448
0.00309502
0.00309556
0.00309611
0.00309665
0.0030972
0.00309774
0.00309829
0.00309884
0.0030994
0.00309995
0.0031005
0.00310106
0.00310162