/*--------------------------------*- C++ -*----------------------------------*\
| =========                 |                                                 |
| \\      /  F ield         | OpenFOAM: The Open Source CFD Toolbox           |
|  \\    /   O peration     | Version:  2312                                  |
|   \\  /    A nd           | Website:  www.openfoam.com                      |
|    \\/     M anipulation  |                                                 |
\*---------------------------------------------------------------------------*/
FoamFile
{
    version     2.0;
    format      ascii;
    arch        "LSB;label=32;scalar=64";
    class       volVectorField;
    location    "56.045";
    object      U;
}
// * * * * * * * * * * * * * * * * * * * * * * * * * * * * * * * * * * * * * //

dimensions      [0 1 -1 0 0 0 0];

internalField   nonuniform List<vector> 
4000
(
(0.0123858 8.13442e-19 0)
(0.037141 2.48017e-18 0)
(0.0618794 2.25683e-18 0)
(0.0865981 2.11379e-18 0)
(0.111285 2.09287e-18 0)
(0.135912 2.09446e-18 0)
(0.160415 2.1011e-18 0)
(0.18469 2.11298e-18 0)
(0.208583 2.12369e-18 0)
(0.231904 2.12555e-18 0)
(0.25445 2.11199e-18 0)
(0.27604 2.09498e-18 0)
(0.296537 2.09355e-18 0)
(0.315865 2.08402e-18 0)
(0.334005 2.07677e-18 0)
(0.35098 2.07203e-18 0)
(0.366847 2.0657e-18 0)
(0.381676 2.06461e-18 0)
(0.395548 2.0642e-18 0)
(0.408556 2.06444e-18 0)
(0.420797 2.06502e-18 0)
(0.432348 2.06523e-18 0)
(0.443264 2.06499e-18 0)
(0.453594 2.06205e-18 0)
(0.463383 2.05671e-18 0)
(0.472672 2.05143e-18 0)
(0.4815 2.04621e-18 0)
(0.489902 2.04107e-18 0)
(0.497909 2.03603e-18 0)
(0.505551 2.03111e-18 0)
(0.512855 2.02631e-18 0)
(0.519844 2.02165e-18 0)
(0.526542 2.01711e-18 0)
(0.532968 2.01272e-18 0)
(0.539141 2.00846e-18 0)
(0.545078 2.00433e-18 0)
(0.550794 2.00033e-18 0)
(0.556304 1.99645e-18 0)
(0.561619 1.99269e-18 0)
(0.566753 1.98904e-18 0)
(0.571716 1.98549e-18 0)
(0.576519 1.98203e-18 0)
(0.58117 1.97867e-18 0)
(0.585678 1.97538e-18 0)
(0.590051 1.97218e-18 0)
(0.594296 1.96904e-18 0)
(0.59842 1.96597e-18 0)
(0.60243 1.96296e-18 0)
(0.606331 1.96001e-18 0)
(0.610129 1.9571e-18 0)
(0.613829 1.95424e-18 0)
(0.617435 1.95142e-18 0)
(0.620951 1.94865e-18 0)
(0.624383 1.94591e-18 0)
(0.627734 1.9432e-18 0)
(0.631007 1.94052e-18 0)
(0.634206 1.93787e-18 0)
(0.637335 1.93524e-18 0)
(0.640395 1.93262e-18 0)
(0.643391 1.93003e-18 0)
(0.646324 1.9275e-18 0)
(0.6492 1.925e-18 0)
(0.652019 1.92249e-18 0)
(0.654783 1.91999e-18 0)
(0.657496 1.91752e-18 0)
(0.660159 1.91506e-18 0)
(0.662773 1.91262e-18 0)
(0.66534 1.91021e-18 0)
(0.667862 1.90781e-18 0)
(0.670341 1.90543e-18 0)
(0.672777 1.90307e-18 0)
(0.675173 1.90074e-18 0)
(0.677529 1.89843e-18 0)
(0.679848 1.89614e-18 0)
(0.682129 1.89387e-18 0)
(0.684375 1.89164e-18 0)
(0.686585 1.88943e-18 0)
(0.688763 1.88725e-18 0)
(0.690907 1.88511e-18 0)
(0.69302 1.88299e-18 0)
(0.695103 1.88092e-18 0)
(0.697155 1.87888e-18 0)
(0.699178 1.87689e-18 0)
(0.701174 1.87493e-18 0)
(0.703141 1.87303e-18 0)
(0.705082 1.87117e-18 0)
(0.706997 1.86937e-18 0)
(0.708887 1.86762e-18 0)
(0.710752 1.86593e-18 0)
(0.712594 1.86429e-18 0)
(0.714411 1.86273e-18 0)
(0.716206 1.86123e-18 0)
(0.717979 1.85979e-18 0)
(0.71973 1.85843e-18 0)
(0.72146 1.85714e-18 0)
(0.723169 1.85593e-18 0)
(0.724859 1.85479e-18 0)
(0.726528 1.85374e-18 0)
(0.728178 1.85276e-18 0)
(0.72981 1.85185e-18 0)
(0.731423 1.85103e-18 0)
(0.733018 1.85028e-18 0)
(0.734596 1.84961e-18 0)
(0.736156 1.849e-18 0)
(0.7377 1.84846e-18 0)
(0.739227 1.84798e-18 0)
(0.740738 1.84755e-18 0)
(0.742233 1.84715e-18 0)
(0.743713 1.84679e-18 0)
(0.745178 1.84644e-18 0)
(0.746628 1.8461e-18 0)
(0.748064 1.84573e-18 0)
(0.749485 1.84533e-18 0)
(0.750893 1.84486e-18 0)
(0.752286 1.8443e-18 0)
(0.753667 1.84361e-18 0)
(0.755034 1.84284e-18 0)
(0.756389 1.84199e-18 0)
(0.757731 1.84102e-18 0)
(0.759061 1.8399e-18 0)
(0.76038 1.8386e-18 0)
(0.761687 1.83709e-18 0)
(0.762982 1.83537e-18 0)
(0.764267 1.83342e-18 0)
(0.765541 1.83123e-18 0)
(0.766804 1.8288e-18 0)
(0.768056 1.82613e-18 0)
(0.769299 1.82322e-18 0)
(0.770531 1.82009e-18 0)
(0.771753 1.81675e-18 0)
(0.772965 1.81322e-18 0)
(0.774168 1.80954e-18 0)
(0.775361 1.80572e-18 0)
(0.776545 1.8018e-18 0)
(0.777719 1.7978e-18 0)
(0.778885 1.79385e-18 0)
(0.780042 1.79008e-18 0)
(0.781189 1.78684e-18 0)
(0.782329 1.78402e-18 0)
(0.783459 1.78693e-18 0)
(0.784582 1.78627e-18 0)
(0.785696 1.78532e-18 0)
(0.786802 1.78718e-18 0)
(0.7879 1.78288e-18 0)
(0.78899 1.77772e-18 0)
(0.790072 1.77158e-18 0)
(0.791147 1.76483e-18 0)
(0.792214 1.75761e-18 0)
(0.793274 1.75003e-18 0)
(0.794326 1.74213e-18 0)
(0.795371 1.73396e-18 0)
(0.796409 1.72556e-18 0)
(0.79744 1.71698e-18 0)
(0.798464 1.70822e-18 0)
(0.799481 1.69932e-18 0)
(0.800491 1.69036e-18 0)
(0.801495 1.6814e-18 0)
(0.802492 1.6725e-18 0)
(0.803483 1.66377e-18 0)
(0.804467 1.65524e-18 0)
(0.805445 1.64705e-18 0)
(0.806416 1.63936e-18 0)
(0.807382 1.63232e-18 0)
(0.808341 1.62612e-18 0)
(0.809294 1.62101e-18 0)
(0.810242 1.61728e-18 0)
(0.811183 1.61526e-18 0)
(0.812119 1.61526e-18 0)
(0.813049 1.61751e-18 0)
(0.813973 1.62314e-18 0)
(0.814892 1.62368e-18 0)
(0.815805 1.59879e-18 0)
(0.816713 1.57411e-18 0)
(0.817615 1.57503e-18 0)
(0.818512 1.58114e-18 0)
(0.819403 1.58399e-18 0)
(0.82029 1.58474e-18 0)
(0.821171 1.58365e-18 0)
(0.822047 1.58104e-18 0)
(0.822918 1.57722e-18 0)
(0.823784 1.57247e-18 0)
(0.824645 1.56701e-18 0)
(0.825502 1.56103e-18 0)
(0.826353 1.55471e-18 0)
(0.8272 1.54814e-18 0)
(0.828041 1.5414e-18 0)
(0.828879 1.53456e-18 0)
(0.829711 1.52764e-18 0)
(0.830539 1.52061e-18 0)
(0.831362 1.51346e-18 0)
(0.832181 1.50617e-18 0)
(0.832995 1.49865e-18 0)
(0.833805 1.49084e-18 0)
(0.834611 1.48262e-18 0)
(0.835412 1.47387e-18 0)
(0.836209 1.46447e-18 0)
(0.837001 1.45427e-18 0)
(0.83779 1.44308e-18 0)
(0.838574 1.43078e-18 0)
(0.839354 1.41715e-18 0)
(0.84013 1.40198e-18 0)
(0.840902 1.38543e-18 0)
(0.841669 1.36209e-18 0)
(0.842433 1.35238e-18 0)
(0.843193 1.34294e-18 0)
(0.843949 1.32062e-18 0)
(0.844701 1.30561e-18 0)
(0.845449 1.29255e-18 0)
(0.846193 1.28157e-18 0)
(0.846933 1.27246e-18 0)
(0.84767 1.26499e-18 0)
(0.848403 1.25898e-18 0)
(0.849132 1.25424e-18 0)
(0.849857 1.25065e-18 0)
(0.850579 1.24808e-18 0)
(0.851297 1.24635e-18 0)
(0.852011 1.24536e-18 0)
(0.852722 1.24501e-18 0)
(0.853429 1.2452e-18 0)
(0.854132 1.24586e-18 0)
(0.854832 1.24691e-18 0)
(0.855529 1.24827e-18 0)
(0.856222 1.24992e-18 0)
(0.856911 1.2518e-18 0)
(0.857597 1.25386e-18 0)
(0.85828 1.25607e-18 0)
(0.858959 1.25839e-18 0)
(0.859635 1.2608e-18 0)
(0.860307 1.26331e-18 0)
(0.860976 1.26589e-18 0)
(0.861641 1.26854e-18 0)
(0.862303 1.27124e-18 0)
(0.862962 1.27397e-18 0)
(0.863617 1.27674e-18 0)
(0.864269 1.27953e-18 0)
(0.864918 1.28234e-18 0)
(0.865563 1.28517e-18 0)
(0.866205 1.28802e-18 0)
(0.866843 1.29087e-18 0)
(0.867479 1.29374e-18 0)
(0.86811 1.29662e-18 0)
(0.868739 1.29951e-18 0)
(0.869364 1.30241e-18 0)
(0.869986 1.30531e-18 0)
(0.870604 1.30822e-18 0)
(0.871219 1.31114e-18 0)
(0.87183 1.31406e-18 0)
(0.872438 1.31698e-18 0)
(0.873043 1.3199e-18 0)
(0.873644 1.32281e-18 0)
(0.874242 1.32573e-18 0)
(0.874836 1.32864e-18 0)
(0.875426 1.33154e-18 0)
(0.876013 1.33443e-18 0)
(0.876596 1.33731e-18 0)
(0.877176 1.34018e-18 0)
(0.877751 1.34304e-18 0)
(0.878323 1.34588e-18 0)
(0.878892 1.34871e-18 0)
(0.879456 1.35151e-18 0)
(0.880016 1.3543e-18 0)
(0.880573 1.35707e-18 0)
(0.881125 1.35982e-18 0)
(0.881673 1.36255e-18 0)
(0.882217 1.36525e-18 0)
(0.882757 1.36793e-18 0)
(0.883293 1.37058e-18 0)
(0.883824 1.37321e-18 0)
(0.884351 1.37581e-18 0)
(0.884874 1.37837e-18 0)
(0.885393 1.38089e-18 0)
(0.885909 1.38336e-18 0)
(0.88642 1.38579e-18 0)
(0.886929 1.38835e-18 0)
(0.887435 1.39103e-18 0)
(0.887938 1.39359e-18 0)
(0.888439 1.39602e-18 0)
(0.888938 1.39846e-18 0)
(0.889435 1.4009e-18 0)
(0.889928 1.40333e-18 0)
(0.89042 1.40576e-18 0)
(0.890909 1.40818e-18 0)
(0.891396 1.41059e-18 0)
(0.891881 1.413e-18 0)
(0.892364 1.4154e-18 0)
(0.892844 1.41779e-18 0)
(0.893322 1.42018e-18 0)
(0.893797 1.42256e-18 0)
(0.894271 1.42494e-18 0)
(0.894742 1.42731e-18 0)
(0.895211 1.42968e-18 0)
(0.895678 1.43204e-18 0)
(0.896143 1.4344e-18 0)
(0.896605 1.43675e-18 0)
(0.897065 1.4391e-18 0)
(0.897524 1.44145e-18 0)
(0.89798 1.44379e-18 0)
(0.898434 1.44614e-18 0)
(0.898885 1.44847e-18 0)
(0.899335 1.45081e-18 0)
(0.899783 1.45314e-18 0)
(0.900228 1.45547e-18 0)
(0.900672 1.4578e-18 0)
(0.901114 1.46013e-18 0)
(0.901553 1.46245e-18 0)
(0.90199 1.46477e-18 0)
(0.902426 1.46709e-18 0)
(0.902859 1.46941e-18 0)
(0.903291 1.47172e-18 0)
(0.90372 1.47404e-18 0)
(0.904148 1.47635e-18 0)
(0.904573 1.47866e-18 0)
(0.904997 1.48096e-18 0)
(0.905419 1.48327e-18 0)
(0.905838 1.48557e-18 0)
(0.906256 1.48787e-18 0)
(0.906672 1.49016e-18 0)
(0.907086 1.49246e-18 0)
(0.907498 1.49475e-18 0)
(0.907909 1.49704e-18 0)
(0.908317 1.49933e-18 0)
(0.908724 1.50161e-18 0)
(0.909128 1.5039e-18 0)
(0.909531 1.50618e-18 0)
(0.909932 1.50845e-18 0)
(0.910332 1.51073e-18 0)
(0.910729 1.513e-18 0)
(0.911125 1.51527e-18 0)
(0.911519 1.51754e-18 0)
(0.911911 1.5198e-18 0)
(0.912301 1.52206e-18 0)
(0.912689 1.52432e-18 0)
(0.913076 1.52658e-18 0)
(0.913461 1.52883e-18 0)
(0.913845 1.53108e-18 0)
(0.914226 1.53333e-18 0)
(0.914606 1.53557e-18 0)
(0.914984 1.53781e-18 0)
(0.915361 1.54005e-18 0)
(0.915736 1.54229e-18 0)
(0.916109 1.54452e-18 0)
(0.91648 1.54675e-18 0)
(0.91685 1.54898e-18 0)
(0.917218 1.5512e-18 0)
(0.917585 1.55342e-18 0)
(0.917949 1.55564e-18 0)
(0.918313 1.55786e-18 0)
(0.918674 1.56007e-18 0)
(0.919034 1.56228e-18 0)
(0.919392 1.56448e-18 0)
(0.919749 1.56668e-18 0)
(0.920104 1.56888e-18 0)
(0.920458 1.57108e-18 0)
(0.92081 1.57327e-18 0)
(0.92116 1.57546e-18 0)
(0.921509 1.57765e-18 0)
(0.921857 1.57984e-18 0)
(0.922202 1.58202e-18 0)
(0.922547 1.5842e-18 0)
(0.922889 1.58637e-18 0)
(0.92323 1.58854e-18 0)
(0.92357 1.59071e-18 0)
(0.923908 1.59288e-18 0)
(0.924245 1.59504e-18 0)
(0.92458 1.5972e-18 0)
(0.924914 1.59936e-18 0)
(0.925246 1.60151e-18 0)
(0.925577 1.60366e-18 0)
(0.925906 1.60581e-18 0)
(0.926234 1.60795e-18 0)
(0.92656 1.6101e-18 0)
(0.926885 1.61223e-18 0)
(0.927208 1.61437e-18 0)
(0.92753 1.6165e-18 0)
(0.927851 1.61863e-18 0)
(0.92817 1.62076e-18 0)
(0.928488 1.62288e-18 0)
(0.928804 1.625e-18 0)
(0.929119 1.62712e-18 0)
(0.929433 1.62924e-18 0)
(0.929745 1.63135e-18 0)
(0.930056 1.63346e-18 0)
(0.930365 1.63556e-18 0)
(0.930673 1.63766e-18 0)
(0.93098 1.63976e-18 0)
(0.931285 1.64186e-18 0)
(0.931589 1.64395e-18 0)
(0.931892 1.64604e-18 0)
(0.932193 1.64813e-18 0)
(0.932493 1.65021e-18 0)
(0.932792 1.6523e-18 0)
(0.933089 1.65437e-18 0)
(0.933385 1.65645e-18 0)
(0.93368 1.65852e-18 0)
(0.933974 1.66059e-18 0)
(0.934266 1.66266e-18 0)
(0.934557 1.66472e-18 0)
(0.934846 1.66678e-18 0)
(0.935135 1.66884e-18 0)
(0.935422 1.67089e-18 0)
(0.935707 1.67294e-18 0)
(0.935992 1.67499e-18 0)
(0.936275 1.67703e-18 0)
(0.936557 1.67908e-18 0)
(0.936838 1.68111e-18 0)
(0.937117 1.68315e-18 0)
(0.937396 1.68518e-18 0)
(0.937673 1.68721e-18 0)
(0.937949 1.68924e-18 0)
(0.938223 1.69126e-18 0)
(0.938497 1.69328e-18 0)
(0.938769 1.6953e-18 0)
(0.93904 1.69731e-18 0)
(0.93931 1.69932e-18 0)
(0.939579 1.70133e-18 0)
(0.939846 1.70334e-18 0)
(0.940112 1.70534e-18 0)
(0.940378 1.70734e-18 0)
(0.940642 1.70933e-18 0)
(0.940904 1.71132e-18 0)
(0.941166 1.71331e-18 0)
(0.941427 1.7153e-18 0)
(0.941686 1.71728e-18 0)
(0.941944 1.71926e-18 0)
(0.942201 1.72124e-18 0)
(0.942457 1.72321e-18 0)
(0.942712 1.72518e-18 0)
(0.942966 1.72715e-18 0)
(0.943219 1.72912e-18 0)
(0.94347 1.73108e-18 0)
(0.943721 1.73303e-18 0)
(0.94397 1.73499e-18 0)
(0.944218 1.73694e-18 0)
(0.944465 1.73889e-18 0)
(0.944711 1.74084e-18 0)
(0.944956 1.74278e-18 0)
(0.9452 1.74472e-18 0)
(0.945443 1.74666e-18 0)
(0.945685 1.74859e-18 0)
(0.945925 1.75052e-18 0)
(0.946165 1.75245e-18 0)
(0.946404 1.75437e-18 0)
(0.946641 1.75629e-18 0)
(0.946878 1.75821e-18 0)
(0.947113 1.76013e-18 0)
(0.947348 1.76204e-18 0)
(0.947581 1.76395e-18 0)
(0.947813 1.76585e-18 0)
(0.948045 1.76776e-18 0)
(0.948275 1.76966e-18 0)
(0.948505 1.77155e-18 0)
(0.948733 1.77345e-18 0)
(0.94896 1.77534e-18 0)
(0.949187 1.77723e-18 0)
(0.949412 1.77911e-18 0)
(0.949636 1.78099e-18 0)
(0.94986 1.78287e-18 0)
(0.950082 1.78475e-18 0)
(0.950304 1.78662e-18 0)
(0.950524 1.78849e-18 0)
(0.950744 1.79036e-18 0)
(0.950962 1.79222e-18 0)
(0.95118 1.79409e-18 0)
(0.951396 1.79595e-18 0)
(0.951612 1.7978e-18 0)
(0.951827 1.79965e-18 0)
(0.952041 1.8015e-18 0)
(0.952254 1.80335e-18 0)
(0.952465 1.8052e-18 0)
(0.952676 1.80704e-18 0)
(0.952887 1.80888e-18 0)
(0.953096 1.81071e-18 0)
(0.953304 1.81255e-18 0)
(0.953511 1.81438e-18 0)
(0.953718 1.8162e-18 0)
(0.953923 1.81803e-18 0)
(0.954128 1.81985e-18 0)
(0.954332 1.82167e-18 0)
(0.954535 1.82349e-18 0)
(0.954737 1.8253e-18 0)
(0.954938 1.82711e-18 0)
(0.955138 1.82892e-18 0)
(0.955337 1.83073e-18 0)
(0.955536 1.83253e-18 0)
(0.955733 1.83433e-18 0)
(0.95593 1.83613e-18 0)
(0.956126 1.83793e-18 0)
(0.956321 1.83972e-18 0)
(0.956515 1.84151e-18 0)
(0.956708 1.8433e-18 0)
(0.956901 1.84508e-18 0)
(0.957092 1.84687e-18 0)
(0.957283 1.84865e-18 0)
(0.957473 1.85043e-18 0)
(0.957662 1.8522e-18 0)
(0.957851 1.85398e-18 0)
(0.958038 1.85575e-18 0)
(0.958225 1.85752e-18 0)
(0.958411 1.85928e-18 0)
(0.958596 1.86105e-18 0)
(0.95878 1.86281e-18 0)
(0.958963 1.86457e-18 0)
(0.959146 1.86632e-18 0)
(0.959328 1.86808e-18 0)
(0.959509 1.86983e-18 0)
(0.959689 1.87158e-18 0)
(0.959868 1.87333e-18 0)
(0.960047 1.87508e-18 0)
(0.960225 1.87682e-18 0)
(0.960402 1.87856e-18 0)
(0.960578 1.8803e-18 0)
(0.960754 1.88204e-18 0)
(0.960929 1.88377e-18 0)
(0.961103 1.88551e-18 0)
(0.961276 1.88724e-18 0)
(0.961449 1.88897e-18 0)
(0.96162 1.8907e-18 0)
(0.961791 1.89242e-18 0)
(0.961962 1.89414e-18 0)
(0.962131 1.89587e-18 0)
(0.9623 1.89759e-18 0)
(0.962468 1.8993e-18 0)
(0.962635 1.90102e-18 0)
(0.962802 1.90273e-18 0)
(0.962968 1.90445e-18 0)
(0.963133 1.90616e-18 0)
(0.963297 1.90787e-18 0)
(0.963461 1.90957e-18 0)
(0.963624 1.91128e-18 0)
(0.963786 1.91298e-18 0)
(0.963948 1.91468e-18 0)
(0.964109 1.91638e-18 0)
(0.964269 1.91808e-18 0)
(0.964428 1.91978e-18 0)
(0.964587 1.92147e-18 0)
(0.964745 1.92317e-18 0)
(0.964903 1.92486e-18 0)
(0.965059 1.92655e-18 0)
(0.965215 1.92824e-18 0)
(0.965371 1.92993e-18 0)
(0.965525 1.93162e-18 0)
(0.965679 1.9333e-18 0)
(0.965833 1.93499e-18 0)
(0.965985 1.93667e-18 0)
(0.966137 1.93835e-18 0)
(0.966289 1.94003e-18 0)
(0.966439 1.94171e-18 0)
(0.966589 1.94339e-18 0)
(0.966739 1.94506e-18 0)
(0.966888 1.94674e-18 0)
(0.967036 1.94841e-18 0)
(0.967183 1.95008e-18 0)
(0.96733 1.95176e-18 0)
(0.967476 1.95343e-18 0)
(0.967621 1.9551e-18 0)
(0.967766 1.95676e-18 0)
(0.967911 1.95843e-18 0)
(0.968054 1.9601e-18 0)
(0.968197 1.96177e-18 0)
(0.96834 1.96343e-18 0)
(0.968481 1.96509e-18 0)
(0.968622 1.96676e-18 0)
(0.968763 1.96842e-18 0)
(0.968903 1.97008e-18 0)
(0.969042 1.97174e-18 0)
(0.969181 1.9734e-18 0)
(0.969319 1.97506e-18 0)
(0.969456 1.97672e-18 0)
(0.969593 1.97838e-18 0)
(0.96973 1.98004e-18 0)
(0.969865 1.98169e-18 0)
(0.970001 1.98335e-18 0)
(0.970135 1.985e-18 0)
(0.970269 1.98666e-18 0)
(0.970402 1.98831e-18 0)
(0.970535 1.98997e-18 0)
(0.970667 1.99162e-18 0)
(0.970799 1.99328e-18 0)
(0.97093 1.99493e-18 0)
(0.971061 1.99658e-18 0)
(0.971191 1.99824e-18 0)
(0.97132 1.99989e-18 0)
(0.971449 2.00154e-18 0)
(0.971577 2.00319e-18 0)
(0.971705 2.00484e-18 0)
(0.971832 2.0065e-18 0)
(0.971958 2.00815e-18 0)
(0.972084 2.0098e-18 0)
(0.97221 2.01145e-18 0)
(0.972335 2.0131e-18 0)
(0.972459 2.01475e-18 0)
(0.972583 2.01641e-18 0)
(0.972707 2.01806e-18 0)
(0.972829 2.01971e-18 0)
(0.972952 2.02136e-18 0)
(0.973073 2.02302e-18 0)
(0.973195 2.02467e-18 0)
(0.973315 2.02632e-18 0)
(0.973435 2.02797e-18 0)
(0.973555 2.02963e-18 0)
(0.973674 2.03128e-18 0)
(0.973793 2.03294e-18 0)
(0.973911 2.03459e-18 0)
(0.974028 2.03625e-18 0)
(0.974145 2.0379e-18 0)
(0.974262 2.03956e-18 0)
(0.974378 2.04121e-18 0)
(0.974494 2.04287e-18 0)
(0.974609 2.04453e-18 0)
(0.974723 2.04619e-18 0)
(0.974837 2.04785e-18 0)
(0.974951 2.04951e-18 0)
(0.975064 2.05117e-18 0)
(0.975177 2.05283e-18 0)
(0.975289 2.05449e-18 0)
(0.9754 2.05616e-18 0)
(0.975511 2.05782e-18 0)
(0.975622 2.05949e-18 0)
(0.975732 2.06116e-18 0)
(0.975842 2.06282e-18 0)
(0.975951 2.06449e-18 0)
(0.97606 2.06616e-18 0)
(0.976168 2.06783e-18 0)
(0.976276 2.0695e-18 0)
(0.976383 2.07118e-18 0)
(0.97649 2.07285e-18 0)
(0.976597 2.07453e-18 0)
(0.976703 2.07621e-18 0)
(0.976808 2.07789e-18 0)
(0.976913 2.07957e-18 0)
(0.977018 2.08125e-18 0)
(0.977122 2.08293e-18 0)
(0.977226 2.08461e-18 0)
(0.977329 2.0863e-18 0)
(0.977432 2.08799e-18 0)
(0.977534 2.08968e-18 0)
(0.977636 2.09137e-18 0)
(0.977737 2.09306e-18 0)
(0.977839 2.09476e-18 0)
(0.977939 2.09645e-18 0)
(0.978039 2.09815e-18 0)
(0.978139 2.09985e-18 0)
(0.978238 2.10155e-18 0)
(0.978337 2.10326e-18 0)
(0.978436 2.10496e-18 0)
(0.978534 2.10667e-18 0)
(0.978631 2.10838e-18 0)
(0.978728 2.11009e-18 0)
(0.978825 2.11181e-18 0)
(0.978922 2.11352e-18 0)
(0.979018 2.11524e-18 0)
(0.979113 2.11696e-18 0)
(0.979208 2.11869e-18 0)
(0.979303 2.12041e-18 0)
(0.979397 2.12214e-18 0)
(0.979491 2.12387e-18 0)
(0.979585 2.1256e-18 0)
(0.979678 2.12734e-18 0)
(0.97977 2.12908e-18 0)
(0.979863 2.13082e-18 0)
(0.979954 2.13256e-18 0)
(0.980046 2.13431e-18 0)
(0.980137 2.13605e-18 0)
(0.980228 2.13781e-18 0)
(0.980318 2.13956e-18 0)
(0.980408 2.14132e-18 0)
(0.980498 2.14308e-18 0)
(0.980587 2.14484e-18 0)
(0.980675 2.1466e-18 0)
(0.980764 2.14837e-18 0)
(0.980852 2.15014e-18 0)
(0.980939 2.15192e-18 0)
(0.981027 2.1537e-18 0)
(0.981114 2.15548e-18 0)
(0.9812 2.15726e-18 0)
(0.981286 2.15905e-18 0)
(0.981372 2.16084e-18 0)
(0.981457 2.16263e-18 0)
(0.981542 2.16443e-18 0)
(0.981627 2.16623e-18 0)
(0.981711 2.16803e-18 0)
(0.981795 2.16984e-18 0)
(0.981879 2.17165e-18 0)
(0.981962 2.17346e-18 0)
(0.982045 2.17528e-18 0)
(0.982127 2.1771e-18 0)
(0.98221 2.17893e-18 0)
(0.982291 2.18075e-18 0)
(0.982373 2.18259e-18 0)
(0.982454 2.18442e-18 0)
(0.982535 2.18626e-18 0)
(0.982615 2.18811e-18 0)
(0.982695 2.18995e-18 0)
(0.982775 2.1918e-18 0)
(0.982854 2.19366e-18 0)
(0.982933 2.19552e-18 0)
(0.983012 2.19738e-18 0)
(0.98309 2.19925e-18 0)
(0.983168 2.20112e-18 0)
(0.983246 2.20299e-18 0)
(0.983323 2.20487e-18 0)
(0.9834 2.20676e-18 0)
(0.983477 2.20864e-18 0)
(0.983553 2.21053e-18 0)
(0.983629 2.21243e-18 0)
(0.983705 2.21433e-18 0)
(0.98378 2.21624e-18 0)
(0.983855 2.21814e-18 0)
(0.98393 2.22006e-18 0)
(0.984005 2.22198e-18 0)
(0.984079 2.2239e-18 0)
(0.984153 2.22582e-18 0)
(0.984226 2.22776e-18 0)
(0.984299 2.22969e-18 0)
(0.984372 2.23163e-18 0)
(0.984444 2.23358e-18 0)
(0.984517 2.23553e-18 0)
(0.984589 2.23748e-18 0)
(0.98466 2.23944e-18 0)
(0.984731 2.2414e-18 0)
(0.984802 2.24337e-18 0)
(0.984873 2.24534e-18 0)
(0.984944 2.24732e-18 0)
(0.985014 2.2493e-18 0)
(0.985083 2.25129e-18 0)
(0.985153 2.25328e-18 0)
(0.985222 2.25528e-18 0)
(0.985291 2.25728e-18 0)
(0.985359 2.25929e-18 0)
(0.985428 2.2613e-18 0)
(0.985496 2.26332e-18 0)
(0.985564 2.26534e-18 0)
(0.985631 2.26737e-18 0)
(0.985698 2.2694e-18 0)
(0.985765 2.27144e-18 0)
(0.985831 2.27348e-18 0)
(0.985898 2.27553e-18 0)
(0.985964 2.27758e-18 0)
(0.986029 2.27964e-18 0)
(0.986095 2.2817e-18 0)
(0.98616 2.28377e-18 0)
(0.986225 2.28585e-18 0)
(0.98629 2.28792e-18 0)
(0.986354 2.29001e-18 0)
(0.986418 2.2921e-18 0)
(0.986482 2.29419e-18 0)
(0.986545 2.29629e-18 0)
(0.986608 2.2984e-18 0)
(0.986671 2.30051e-18 0)
(0.986734 2.30262e-18 0)
(0.986796 2.30475e-18 0)
(0.986859 2.30687e-18 0)
(0.98692 2.309e-18 0)
(0.986982 2.31114e-18 0)
(0.987043 2.31328e-18 0)
(0.987105 2.31543e-18 0)
(0.987165 2.31759e-18 0)
(0.987226 2.31975e-18 0)
(0.987286 2.32191e-18 0)
(0.987346 2.32408e-18 0)
(0.987406 2.32626e-18 0)
(0.987466 2.32844e-18 0)
(0.987525 2.33063e-18 0)
(0.987584 2.33282e-18 0)
(0.987643 2.33501e-18 0)
(0.987701 2.33722e-18 0)
(0.98776 2.33943e-18 0)
(0.987818 2.34164e-18 0)
(0.987876 2.34386e-18 0)
(0.987933 2.34609e-18 0)
(0.98799 2.34832e-18 0)
(0.988047 2.35055e-18 0)
(0.988104 2.35279e-18 0)
(0.988161 2.35504e-18 0)
(0.988217 2.35729e-18 0)
(0.988273 2.35955e-18 0)
(0.988329 2.36182e-18 0)
(0.988385 2.36409e-18 0)
(0.98844 2.36636e-18 0)
(0.988495 2.36864e-18 0)
(0.98855 2.37093e-18 0)
(0.988605 2.37322e-18 0)
(0.988659 2.37551e-18 0)
(0.988714 2.37782e-18 0)
(0.988768 2.38012e-18 0)
(0.988821 2.38244e-18 0)
(0.988875 2.38476e-18 0)
(0.988928 2.38708e-18 0)
(0.988981 2.38941e-18 0)
(0.989034 2.39174e-18 0)
(0.989087 2.39408e-18 0)
(0.989139 2.39643e-18 0)
(0.989191 2.39878e-18 0)
(0.989243 2.40114e-18 0)
(0.989295 2.4035e-18 0)
(0.989346 2.40586e-18 0)
(0.989398 2.40824e-18 0)
(0.989449 2.41061e-18 0)
(0.9895 2.413e-18 0)
(0.98955 2.41538e-18 0)
(0.989601 2.41778e-18 0)
(0.989651 2.42018e-18 0)
(0.989701 2.42258e-18 0)
(0.989751 2.42499e-18 0)
(0.9898 2.4274e-18 0)
(0.98985 2.42982e-18 0)
(0.989899 2.43224e-18 0)
(0.989948 2.43467e-18 0)
(0.989996 2.43711e-18 0)
(0.990045 2.43955e-18 0)
(0.990093 2.44199e-18 0)
(0.990141 2.44444e-18 0)
(0.990189 2.44689e-18 0)
(0.990237 2.44935e-18 0)
(0.990284 2.45182e-18 0)
(0.990332 2.45429e-18 0)
(0.990379 2.45676e-18 0)
(0.990426 2.45924e-18 0)
(0.990472 2.46172e-18 0)
(0.990519 2.46421e-18 0)
(0.990565 2.46671e-18 0)
(0.990611 2.4692e-18 0)
(0.990657 2.47171e-18 0)
(0.990703 2.47422e-18 0)
(0.990748 2.47673e-18 0)
(0.990794 2.47924e-18 0)
(0.990839 2.48177e-18 0)
(0.990884 2.48429e-18 0)
(0.990929 2.48682e-18 0)
(0.990973 2.48936e-18 0)
(0.991018 2.4919e-18 0)
(0.991062 2.49445e-18 0)
(0.991106 2.49699e-18 0)
(0.99115 2.49954e-18 0)
(0.991193 2.5021e-18 0)
(0.991237 2.50465e-18 0)
(0.99128 2.50722e-18 0)
(0.991323 2.50978e-18 0)
(0.991366 2.51235e-18 0)
(0.991409 2.51492e-18 0)
(0.991451 2.51749e-18 0)
(0.991493 2.52007e-18 0)
(0.991536 2.52265e-18 0)
(0.991578 2.52523e-18 0)
(0.991619 2.52782e-18 0)
(0.991661 2.53041e-18 0)
(0.991703 2.533e-18 0)
(0.991744 2.5356e-18 0)
(0.991785 2.5382e-18 0)
(0.991826 2.54081e-18 0)
(0.991867 2.54341e-18 0)
(0.991907 2.54603e-18 0)
(0.991948 2.54864e-18 0)
(0.991988 2.55125e-18 0)
(0.992028 2.55387e-18 0)
(0.992068 2.5565e-18 0)
(0.992108 2.55912e-18 0)
(0.992147 2.56175e-18 0)
(0.992187 2.56439e-18 0)
(0.992226 2.56702e-18 0)
(0.992265 2.56966e-18 0)
(0.992304 2.57231e-18 0)
(0.992342 2.57495e-18 0)
(0.992381 2.57761e-18 0)
(0.992419 2.58026e-18 0)
(0.992458 2.58292e-18 0)
(0.992496 2.58558e-18 0)
(0.992534 2.58824e-18 0)
(0.992571 2.5909e-18 0)
(0.992609 2.59358e-18 0)
(0.992647 2.59625e-18 0)
(0.992684 2.59893e-18 0)
(0.992721 2.60161e-18 0)
(0.992758 2.6043e-18 0)
(0.992795 2.60699e-18 0)
(0.992831 2.60968e-18 0)
(0.992868 2.61238e-18 0)
(0.992904 2.61508e-18 0)
(0.99294 2.61778e-18 0)
(0.992977 2.6205e-18 0)
(0.993012 2.62321e-18 0)
(0.993048 2.62592e-18 0)
(0.993084 2.62864e-18 0)
(0.993119 2.63137e-18 0)
(0.993154 2.6341e-18 0)
(0.99319 2.63683e-18 0)
(0.993225 2.63956e-18 0)
(0.993259 2.6423e-18 0)
(0.993294 2.64505e-18 0)
(0.993329 2.64779e-18 0)
(0.993363 2.65054e-18 0)
(0.993397 2.6533e-18 0)
(0.993431 2.65606e-18 0)
(0.993465 2.65883e-18 0)
(0.993499 2.66159e-18 0)
(0.993533 2.66436e-18 0)
(0.993567 2.66714e-18 0)
(0.9936 2.66992e-18 0)
(0.993633 2.67271e-18 0)
(0.993666 2.67549e-18 0)
(0.993699 2.67828e-18 0)
(0.993732 2.68108e-18 0)
(0.993765 2.68387e-18 0)
(0.993797 2.68668e-18 0)
(0.99383 2.68948e-18 0)
(0.993862 2.69229e-18 0)
(0.993894 2.6951e-18 0)
(0.993926 2.69791e-18 0)
(0.993958 2.70073e-18 0)
(0.99399 2.70356e-18 0)
(0.994022 2.70639e-18 0)
(0.994053 2.70922e-18 0)
(0.994084 2.71205e-18 0)
(0.994116 2.71489e-18 0)
(0.994147 2.71773e-18 0)
(0.994178 2.72057e-18 0)
(0.994209 2.72342e-18 0)
(0.994239 2.72627e-18 0)
(0.99427 2.72912e-18 0)
(0.9943 2.73197e-18 0)
(0.994331 2.73483e-18 0)
(0.994361 2.73769e-18 0)
(0.994391 2.74054e-18 0)
(0.994421 2.7434e-18 0)
(0.994451 2.74626e-18 0)
(0.99448 2.74912e-18 0)
(0.99451 2.75197e-18 0)
(0.994539 2.75482e-18 0)
(0.994569 2.75767e-18 0)
(0.994598 2.76052e-18 0)
(0.994627 2.76336e-18 0)
(0.994656 2.76619e-18 0)
(0.994685 2.76902e-18 0)
(0.994713 2.77184e-18 0)
(0.994742 2.77464e-18 0)
(0.99477 2.77744e-18 0)
(0.994799 2.78023e-18 0)
(0.994827 2.783e-18 0)
(0.994855 2.78576e-18 0)
(0.994883 2.7885e-18 0)
(0.994911 2.79123e-18 0)
(0.994939 2.79393e-18 0)
(0.994966 2.79662e-18 0)
(0.994994 2.79928e-18 0)
(0.995021 2.80191e-18 0)
(0.995049 2.80453e-18 0)
(0.995076 2.80711e-18 0)
(0.995103 2.80966e-18 0)
(0.99513 2.81219e-18 0)
(0.995157 2.81468e-18 0)
(0.995183 2.81713e-18 0)
(0.99521 2.81955e-18 0)
(0.995236 2.82194e-18 0)
(0.995263 2.82428e-18 0)
(0.995289 2.82658e-18 0)
(0.995315 2.82885e-18 0)
(0.995341 2.83107e-18 0)
(0.995367 2.83325e-18 0)
(0.995393 2.83539e-18 0)
(0.995419 2.83748e-18 0)
(0.995445 2.83952e-18 0)
(0.99547 2.84153e-18 0)
(0.995495 2.84348e-18 0)
(0.995521 2.84539e-18 0)
(0.995546 2.84726e-18 0)
(0.995571 2.84908e-18 0)
(0.995596 2.85085e-18 0)
(0.995621 2.85258e-18 0)
(0.995646 2.85426e-18 0)
(0.99567 2.8559e-18 0)
(0.995695 2.8575e-18 0)
(0.99572 2.85905e-18 0)
(0.995744 2.86055e-18 0)
(0.995768 2.86201e-18 0)
(0.995792 2.86343e-18 0)
(0.995816 2.8648e-18 0)
(0.99584 2.86613e-18 0)
(0.995864 2.86743e-18 0)
(0.995888 2.86869e-18 0)
(0.995912 2.86991e-18 0)
(0.995935 2.87111e-18 0)
(0.995959 2.87229e-18 0)
(0.995982 2.87346e-18 0)
(0.996005 2.87464e-18 0)
(0.996029 2.87582e-18 0)
(0.996052 2.87704e-18 0)
(0.996075 2.87831e-18 0)
(0.996098 2.87964e-18 0)
(0.99612 2.88108e-18 0)
(0.996143 2.88262e-18 0)
(0.996166 2.8843e-18 0)
(0.996188 2.88612e-18 0)
(0.996211 2.88809e-18 0)
(0.996233 2.89019e-18 0)
(0.996255 2.89239e-18 0)
(0.996277 2.8946e-18 0)
(0.9963 2.89671e-18 0)
(0.996322 2.89851e-18 0)
(0.996343 2.89974e-18 0)
(0.996365 2.9e-18 0)
(0.996387 2.89876e-18 0)
(0.996408 2.8957e-18 0)
(0.99643 2.88568e-18 0)
(0.996451 2.87811e-18 0)
(0.996473 2.86913e-18 0)
(0.996494 2.85536e-18 0)
(0.996515 2.83938e-18 0)
(0.996536 2.82363e-18 0)
(0.996557 2.80963e-18 0)
(0.996578 2.80214e-18 0)
(0.996599 2.80784e-18 0)
(0.99662 2.772e-18 0)
(0.99664 2.73734e-18 0)
(0.996661 2.7499e-18 0)
(0.996681 2.75797e-18 0)
(0.996702 2.70899e-18 0)
(0.996722 2.66102e-18 0)
(0.996742 2.67151e-18 0)
(0.996762 2.69719e-18 0)
(0.996782 2.71141e-18 0)
(0.996802 2.72561e-18 0)
(0.996822 2.75356e-18 0)
(0.996842 2.78021e-18 0)
(0.996862 2.78683e-18 0)
(0.996882 2.79032e-18 0)
(0.996901 2.8045e-18 0)
(0.996921 2.80495e-18 0)
(0.99694 2.7768e-18 0)
(0.996959 2.75192e-18 0)
(0.996979 2.76023e-18 0)
(0.996998 2.76956e-18 0)
(0.997017 2.76564e-18 0)
(0.997036 2.76448e-18 0)
(0.997055 2.77922e-18 0)
(0.997074 2.79119e-18 0)
(0.997092 2.77007e-18 0)
(0.997111 2.74662e-18 0)
(0.99713 2.75373e-18 0)
(0.997148 2.77597e-18 0)
(0.997167 2.79617e-18 0)
(0.997185 2.81675e-18 0)
(0.997203 2.83994e-18 0)
(0.997222 2.84742e-18 0)
(0.99724 2.82653e-18 0)
(0.997258 2.79762e-18 0)
(0.997276 2.78294e-18 0)
(0.997294 2.77056e-18 0)
(0.997312 2.76853e-18 0)
(0.99733 2.76411e-18 0)
(0.997347 2.74096e-18 0)
(0.997365 2.70849e-18 0)
(0.997382 2.68841e-18 0)
(0.9974 2.67682e-18 0)
(0.997417 2.66254e-18 0)
(0.997435 2.64704e-18 0)
(0.997452 2.64668e-18 0)
(0.997469 2.64604e-18 0)
(0.997486 2.63256e-18 0)
(0.997504 2.63415e-18 0)
(0.997521 2.63223e-18 0)
(0.997537 2.63107e-18 0)
(0.997554 2.63746e-18 0)
(0.997571 2.64542e-18 0)
(0.997588 2.64942e-18 0)
(0.997605 2.64953e-18 0)
(0.997621 2.6462e-18 0)
(0.997638 2.62743e-18 0)
(0.997654 2.62135e-18 0)
(0.997671 2.61374e-18 0)
(0.997687 2.59116e-18 0)
(0.997703 2.57037e-18 0)
(0.997719 2.5231e-18 0)
(0.997735 2.4788e-18 0)
(0.997752 2.46635e-18 0)
(0.997768 2.4641e-18 0)
(0.997783 2.51144e-18 0)
(0.997799 2.55655e-18 0)
(0.997815 2.54757e-18 0)
(0.997831 2.52668e-18 0)
(0.997847 2.51955e-18 0)
(0.997862 2.51411e-18 0)
(0.997878 2.49933e-18 0)
(0.997893 2.49124e-18 0)
(0.997909 2.47279e-18 0)
(0.997924 2.4593e-18 0)
(0.997939 2.46567e-18 0)
(0.997955 2.48066e-18 0)
(0.99797 2.52354e-18 0)
(0.997985 2.56812e-18 0)
(0.998 2.58502e-18 0)
(0.998015 2.59226e-18 0)
(0.99803 2.57712e-18 0)
(0.998045 2.55971e-18 0)
(0.99806 2.55987e-18 0)
(0.998074 2.56677e-18 0)
(0.998089 2.58889e-18 0)
(0.998104 2.60779e-18 0)
(0.998118 2.60723e-18 0)
(0.998133 2.61034e-18 0)
(0.998147 2.60307e-18 0)
(0.998162 2.60118e-18 0)
(0.998176 2.61756e-18 0)
(0.99819 2.63314e-18 0)
(0.998204 2.63528e-18 0)
(0.998219 2.64058e-18 0)
(0.998233 2.66359e-18 0)
(0.998247 2.67521e-18 0)
(0.998261 2.63008e-18 0)
(0.998275 2.57973e-18 0)
(0.998288 2.57617e-18 0)
(0.998302 2.56814e-18 0)
(0.998316 2.53477e-18 0)
(0.99833 2.49643e-18 0)
(0.998343 2.47556e-18 0)
(0.998357 2.46384e-18 0)
(0.998371 2.46888e-18 0)
(0.998384 2.47843e-18 0)
(0.998397 2.48052e-18 0)
(0.998411 2.48005e-18 0)
(0.998424 2.46631e-18 0)
(0.998437 2.45936e-18 0)
(0.998451 2.47698e-18 0)
(0.998464 2.49722e-18 0)
(0.998477 2.46413e-18 0)
(0.99849 2.43124e-18 0)
(0.998503 2.45481e-18 0)
(0.998516 2.48661e-18 0)
(0.998529 2.51185e-18 0)
(0.998542 2.515e-18 0)
(0.998555 2.51402e-18 0)
(0.998567 2.52693e-18 0)
(0.99858 2.53519e-18 0)
(0.998593 2.50501e-18 0)
(0.998605 2.46994e-18 0)
(0.998618 2.46302e-18 0)
(0.99863 2.45529e-18 0)
(0.998643 2.4559e-18 0)
(0.998655 2.45377e-18 0)
(0.998668 2.44126e-18 0)
(0.99868 2.4265e-18 0)
(0.998692 2.42526e-18 0)
(0.998704 2.42797e-18 0)
(0.998716 2.42248e-18 0)
(0.998728 2.4156e-18 0)
(0.998741 2.43689e-18 0)
(0.998753 2.45254e-18 0)
(0.998765 2.43094e-18 0)
(0.998776 2.41559e-18 0)
(0.998788 2.44296e-18 0)
(0.9988 2.47094e-18 0)
(0.998812 2.45412e-18 0)
(0.998824 2.43073e-18 0)
(0.998835 2.42661e-18 0)
(0.998847 2.4286e-18 0)
(0.998858 2.42375e-18 0)
(0.99887 2.43833e-18 0)
(0.998881 2.44409e-18 0)
(0.998893 2.45188e-18 0)
(0.998904 2.4751e-18 0)
(0.998916 2.49866e-18 0)
(0.998927 2.4849e-18 0)
(0.998938 2.468e-18 0)
(0.998949 2.48182e-18 0)
(0.998961 2.48929e-18 0)
(0.998972 2.51268e-18 0)
(0.998983 2.53549e-18 0)
(0.998994 2.53533e-18 0)
(0.999005 2.52019e-18 0)
(0.999016 2.52171e-18 0)
(0.999027 2.52643e-18 0)
(0.999037 2.51569e-18 0)
(0.999048 2.50345e-18 0)
(0.999059 2.50669e-18 0)
(0.99907 2.50837e-18 0)
(0.99908 2.49063e-18 0)