# Wall shear stress
# Time          	patch           	min             	max             
0.5             	top_wall	(-1.43231474e-02 1.59786813e-30 0.00000000e+00)	(-1.43231474e-02 1.59786813e-30 0.00000000e+00)
0.5             	bot_wall	(-1.43231474e-02 -6.88236998e-19 0.00000000e+00)	(-1.43231474e-02 -6.88236998e-19 0.00000000e+00)
1               	top_wall	(-1.02942493e-02 -1.58805810e-29 0.00000000e+00)	(-1.02942493e-02 -1.58805810e-29 0.00000000e+00)
1               	bot_wall	(-1.02942493e-02 -7.62603148e-19 0.00000000e+00)	(-1.02942493e-02 -7.62603148e-19 0.00000000e+00)
1.5             	top_wall	(-8.52191973e-03 -4.11428174e-29 0.00000000e+00)	(-8.52191973e-03 -4.11428174e-29 0.00000000e+00)
1.5             	bot_wall	(-8.52191977e-03 -6.63485218e-19 0.00000000e+00)	(-8.52191977e-03 -6.63485218e-19 0.00000000e+00)
2               	top_wall	(-7.46874069e-03 -2.28518160e-29 0.00000000e+00)	(-7.46874069e-03 -2.28518160e-29 0.00000000e+00)
2               	bot_wall	(-7.46874073e-03 -6.48505423e-19 0.00000000e+00)	(-7.46874073e-03 -6.48505423e-19 0.00000000e+00)
2.5             	top_wall	(-6.75146758e-03 -1.26879342e-28 0.00000000e+00)	(-6.75146758e-03 -1.26879342e-28 0.00000000e+00)
2.5             	bot_wall	(-6.75146762e-03 -4.43112551e-19 0.00000000e+00)	(-6.75146762e-03 -4.43112551e-19 0.00000000e+00)
3               	top_wall	(-6.22280217e-03 -1.36253276e-28 0.00000000e+00)	(-6.22280217e-03 -1.36253276e-28 0.00000000e+00)
3               	bot_wall	(-6.22280221e-03 1.07683010e-19 0.00000000e+00)	(-6.22280221e-03 1.07683010e-19 0.00000000e+00)
3.5             	top_wall	(-5.81243775e-03 -9.88881993e-29 0.00000000e+00)	(-5.81243775e-03 -9.88881993e-29 0.00000000e+00)
3.5             	bot_wall	(-5.81243779e-03 3.01326453e-19 0.00000000e+00)	(-5.81243779e-03 3.01326453e-19 0.00000000e+00)
4               	top_wall	(-5.48201388e-03 -8.86251116e-29 0.00000000e+00)	(-5.48201388e-03 -8.86251116e-29 0.00000000e+00)
4               	bot_wall	(-5.48201392e-03 2.59334001e-20 0.00000000e+00)	(-5.48201392e-03 2.59334001e-20 0.00000000e+00)
4.5             	top_wall	(-5.20858999e-03 -5.30407977e-29 0.00000000e+00)	(-5.20858999e-03 -5.30407977e-29 0.00000000e+00)
4.5             	bot_wall	(-5.20859003e-03 -3.45989626e-19 0.00000000e+00)	(-5.20859003e-03 -3.45989626e-19 0.00000000e+00)
5               	top_wall	(-4.97749453e-03 6.14859234e-30 0.00000000e+00)	(-4.97749453e-03 6.14859234e-30 0.00000000e+00)
5               	bot_wall	(-4.97749457e-03 -2.90283656e-19 0.00000000e+00)	(-4.97749457e-03 -2.90283656e-19 0.00000000e+00)
5.5             	top_wall	(-4.77884962e-03 7.22061437e-29 0.00000000e+00)	(-4.77884962e-03 7.22061437e-29 0.00000000e+00)
5.5             	bot_wall	(-4.77884966e-03 -1.54700581e-19 0.00000000e+00)	(-4.77884966e-03 -1.54700581e-19 0.00000000e+00)
6               	top_wall	(-4.60572890e-03 1.81444313e-28 0.00000000e+00)	(-4.60572890e-03 1.81444313e-28 0.00000000e+00)
6               	bot_wall	(-4.60572894e-03 1.74180491e-19 0.00000000e+00)	(-4.60572894e-03 1.74180491e-19 0.00000000e+00)
6.5             	top_wall	(-4.45311278e-03 2.91358447e-28 0.00000000e+00)	(-4.45311278e-03 2.91358447e-28 0.00000000e+00)
6.5             	bot_wall	(-4.45311282e-03 6.33661590e-19 0.00000000e+00)	(-4.45311282e-03 6.33661590e-19 0.00000000e+00)
7               	top_wall	(-4.31726249e-03 2.05784492e-28 0.00000000e+00)	(-4.31726249e-03 2.05784492e-28 0.00000000e+00)
7               	bot_wall	(-4.31726253e-03 3.13415931e-19 0.00000000e+00)	(-4.31726253e-03 3.13415931e-19 0.00000000e+00)
7.5             	top_wall	(-4.19532864e-03 3.04554752e-28 0.00000000e+00)	(-4.19532864e-03 3.04554752e-28 0.00000000e+00)
7.5             	bot_wall	(-4.19532868e-03 1.79293306e-19 0.00000000e+00)	(-4.19532868e-03 1.79293306e-19 0.00000000e+00)
8               	top_wall	(-4.08509641e-03 3.35717468e-28 0.00000000e+00)	(-4.08509641e-03 3.35717468e-28 0.00000000e+00)
8               	bot_wall	(-4.08509645e-03 9.53010196e-19 0.00000000e+00)	(-4.08509645e-03 9.53010196e-19 0.00000000e+00)
8.5             	top_wall	(-3.98481469e-03 3.13736901e-28 0.00000000e+00)	(-3.98481469e-03 3.13736901e-28 0.00000000e+00)
8.5             	bot_wall	(-3.98481473e-03 5.01878310e-19 0.00000000e+00)	(-3.98481473e-03 5.01878310e-19 0.00000000e+00)
9               	top_wall	(-3.89307839e-03 2.45288433e-28 0.00000000e+00)	(-3.89307839e-03 2.45288433e-28 0.00000000e+00)
9               	bot_wall	(-3.89307843e-03 3.10514078e-19 0.00000000e+00)	(-3.89307843e-03 3.10514078e-19 0.00000000e+00)
9.5             	top_wall	(-3.80874519e-03 1.94944240e-28 0.00000000e+00)	(-3.80874519e-03 1.94944240e-28 0.00000000e+00)
9.5             	bot_wall	(-3.80874523e-03 3.28114968e-19 0.00000000e+00)	(-3.80874523e-03 3.28114968e-19 0.00000000e+00)
10              	top_wall	(-3.73087560e-03 5.25459405e-28 0.00000000e+00)	(-3.73087560e-03 5.25459405e-28 0.00000000e+00)
10              	bot_wall	(-3.73087564e-03 8.65141456e-19 0.00000000e+00)	(-3.73087564e-03 8.65141456e-19 0.00000000e+00)
10.5            	top_wall	(-3.65868885e-03 6.02142640e-28 0.00000000e+00)	(-3.65868885e-03 6.02142640e-28 0.00000000e+00)
10.5            	bot_wall	(-3.65868889e-03 9.54326156e-19 0.00000000e+00)	(-3.65868889e-03 9.54326156e-19 0.00000000e+00)
11              	top_wall	(-3.59153005e-03 6.47782312e-28 0.00000000e+00)	(-3.59153005e-03 6.47782312e-28 0.00000000e+00)
11              	bot_wall	(-3.59153009e-03 8.14579792e-19 0.00000000e+00)	(-3.59153009e-03 8.14579792e-19 0.00000000e+00)
11.5            	top_wall	(-3.52884521e-03 2.67075136e-28 0.00000000e+00)	(-3.52884521e-03 2.67075136e-28 0.00000000e+00)
11.5            	bot_wall	(-3.52884525e-03 6.65786735e-19 0.00000000e+00)	(-3.52884525e-03 6.65786735e-19 0.00000000e+00)
12              	top_wall	(-3.47016221e-03 2.53976889e-28 0.00000000e+00)	(-3.47016221e-03 2.53976889e-28 0.00000000e+00)
12              	bot_wall	(-3.47016225e-03 8.23232850e-19 0.00000000e+00)	(-3.47016225e-03 8.23232850e-19 0.00000000e+00)
12.5            	top_wall	(-3.41507570e-03 9.23548146e-29 0.00000000e+00)	(-3.41507570e-03 9.23548146e-29 0.00000000e+00)
12.5            	bot_wall	(-3.41507574e-03 1.05936598e-18 0.00000000e+00)	(-3.41507574e-03 1.05936598e-18 0.00000000e+00)
13              	top_wall	(-3.36323553e-03 1.15668998e-28 0.00000000e+00)	(-3.36323553e-03 1.15668998e-28 0.00000000e+00)
13              	bot_wall	(-3.36323557e-03 4.54744727e-19 0.00000000e+00)	(-3.36323557e-03 4.54744727e-19 0.00000000e+00)
13.5            	top_wall	(-3.31433744e-03 3.64721469e-28 0.00000000e+00)	(-3.31433744e-03 3.64721469e-28 0.00000000e+00)
13.5            	bot_wall	(-3.31433748e-03 6.37351788e-19 0.00000000e+00)	(-3.31433748e-03 6.37351788e-19 0.00000000e+00)
14              	top_wall	(-3.26811575e-03 3.36198937e-28 0.00000000e+00)	(-3.26811575e-03 3.36198937e-28 0.00000000e+00)
14              	bot_wall	(-3.26811579e-03 4.26743317e-19 0.00000000e+00)	(-3.26811579e-03 4.26743317e-19 0.00000000e+00)
14.5            	top_wall	(-3.22433696e-03 4.80933095e-28 0.00000000e+00)	(-3.22433696e-03 4.80933095e-28 0.00000000e+00)
14.5            	bot_wall	(-3.22433700e-03 9.40589867e-20 0.00000000e+00)	(-3.22433700e-03 9.40589867e-20 0.00000000e+00)
15              	top_wall	(-3.18279517e-03 7.28604932e-28 0.00000000e+00)	(-3.18279517e-03 7.28604932e-28 0.00000000e+00)
15              	bot_wall	(-3.18279521e-03 2.28323071e-19 0.00000000e+00)	(-3.18279521e-03 2.28323071e-19 0.00000000e+00)
15.5            	top_wall	(-3.14330809e-03 1.02583097e-27 0.00000000e+00)	(-3.14330809e-03 1.02583097e-27 0.00000000e+00)
15.5            	bot_wall	(-3.14330813e-03 3.07447459e-19 0.00000000e+00)	(-3.14330813e-03 3.07447459e-19 0.00000000e+00)
16              	top_wall	(-3.10571332e-03 1.28477076e-27 0.00000000e+00)	(-3.10571332e-03 1.28477076e-27 0.00000000e+00)
16              	bot_wall	(-3.10571336e-03 -2.89790726e-19 0.00000000e+00)	(-3.10571336e-03 -2.89790726e-19 0.00000000e+00)
16.5            	top_wall	(-3.06986601e-03 1.28539199e-27 0.00000000e+00)	(-3.06986601e-03 1.28539199e-27 0.00000000e+00)
16.5            	bot_wall	(-3.06986605e-03 -2.56838826e-19 0.00000000e+00)	(-3.06986605e-03 -2.56838826e-19 0.00000000e+00)
17              	top_wall	(-3.03563633e-03 1.73069331e-27 0.00000000e+00)	(-3.03563633e-03 1.73069331e-27 0.00000000e+00)
17              	bot_wall	(-3.03563637e-03 3.68139222e-20 0.00000000e+00)	(-3.03563637e-03 3.68139222e-20 0.00000000e+00)
17.5            	top_wall	(-3.00290746e-03 1.87601574e-27 0.00000000e+00)	(-3.00290746e-03 1.87601574e-27 0.00000000e+00)
17.5            	bot_wall	(-3.00290750e-03 -1.88662386e-19 0.00000000e+00)	(-3.00290750e-03 -1.88662386e-19 0.00000000e+00)
18              	top_wall	(-2.97157422e-03 2.23830615e-27 0.00000000e+00)	(-2.97157422e-03 2.23830615e-27 0.00000000e+00)
18              	bot_wall	(-2.97157425e-03 -1.66079261e-19 0.00000000e+00)	(-2.97157425e-03 -1.66079261e-19 0.00000000e+00)
18.5            	top_wall	(-2.94154121e-03 2.20847233e-27 0.00000000e+00)	(-2.94154121e-03 2.20847233e-27 0.00000000e+00)
18.5            	bot_wall	(-2.94154124e-03 -2.55163416e-19 0.00000000e+00)	(-2.94154124e-03 -2.55163416e-19 0.00000000e+00)
19              	top_wall	(-2.91272218e-03 1.93397833e-27 0.00000000e+00)	(-2.91272218e-03 1.93397833e-27 0.00000000e+00)
19              	bot_wall	(-2.91272221e-03 -1.88190294e-19 0.00000000e+00)	(-2.91272221e-03 -1.88190294e-19 0.00000000e+00)
19.5            	top_wall	(-2.88503838e-03 1.69629657e-27 0.00000000e+00)	(-2.88503838e-03 1.69629657e-27 0.00000000e+00)
19.5            	bot_wall	(-2.88503841e-03 -2.06166006e-19 0.00000000e+00)	(-2.88503841e-03 -2.06166006e-19 0.00000000e+00)
20              	top_wall	(-2.85841832e-03 1.61499729e-27 0.00000000e+00)	(-2.85841832e-03 1.61499729e-27 0.00000000e+00)
20              	bot_wall	(-2.85841836e-03 -3.37920188e-19 0.00000000e+00)	(-2.85841836e-03 -3.37920188e-19 0.00000000e+00)
20.5            	top_wall	(-2.83279635e-03 1.55440877e-27 0.00000000e+00)	(-2.83279635e-03 1.55440877e-27 0.00000000e+00)
20.5            	bot_wall	(-2.83279638e-03 2.78058795e-20 0.00000000e+00)	(-2.83279638e-03 2.78058795e-20 0.00000000e+00)
21              	top_wall	(-2.80811262e-03 1.74767083e-27 0.00000000e+00)	(-2.80811262e-03 1.74767083e-27 0.00000000e+00)
21              	bot_wall	(-2.80811266e-03 2.56029453e-19 0.00000000e+00)	(-2.80811266e-03 2.56029453e-19 0.00000000e+00)
21.5            	top_wall	(-2.78431194e-03 1.47381455e-27 0.00000000e+00)	(-2.78431194e-03 1.47381455e-27 0.00000000e+00)
21.5            	bot_wall	(-2.78431198e-03 -3.36113438e-20 0.00000000e+00)	(-2.78431198e-03 -3.36113438e-20 0.00000000e+00)
22              	top_wall	(-2.76134375e-03 1.38750458e-27 0.00000000e+00)	(-2.76134375e-03 1.38750458e-27 0.00000000e+00)
22              	bot_wall	(-2.76134379e-03 -5.17872482e-19 0.00000000e+00)	(-2.76134379e-03 -5.17872482e-19 0.00000000e+00)
22.5            	top_wall	(-2.73916131e-03 9.96884462e-28 0.00000000e+00)	(-2.73916131e-03 9.96884462e-28 0.00000000e+00)
22.5            	bot_wall	(-2.73916134e-03 -8.17311752e-19 0.00000000e+00)	(-2.73916134e-03 -8.17311752e-19 0.00000000e+00)
23              	top_wall	(-2.71772145e-03 1.42668025e-27 0.00000000e+00)	(-2.71772145e-03 1.42668025e-27 0.00000000e+00)
23              	bot_wall	(-2.71772149e-03 -8.84299742e-19 0.00000000e+00)	(-2.71772149e-03 -8.84299742e-19 0.00000000e+00)
23.5            	top_wall	(-2.69698452e-03 1.20866613e-27 0.00000000e+00)	(-2.69698452e-03 1.20866613e-27 0.00000000e+00)
23.5            	bot_wall	(-2.69698456e-03 -6.27238237e-19 0.00000000e+00)	(-2.69698456e-03 -6.27238237e-19 0.00000000e+00)
24              	top_wall	(-2.67691330e-03 1.30617137e-27 0.00000000e+00)	(-2.67691330e-03 1.30617137e-27 0.00000000e+00)
24              	bot_wall	(-2.67691334e-03 -4.60800572e-19 0.00000000e+00)	(-2.67691334e-03 -4.60800572e-19 0.00000000e+00)
24.5            	top_wall	(-2.65747371e-03 1.14141366e-27 0.00000000e+00)	(-2.65747371e-03 1.14141366e-27 0.00000000e+00)
24.5            	bot_wall	(-2.65747375e-03 -8.74057598e-19 0.00000000e+00)	(-2.65747375e-03 -8.74057598e-19 0.00000000e+00)
25              	top_wall	(-2.63863375e-03 7.02767962e-28 0.00000000e+00)	(-2.63863375e-03 7.02767962e-28 0.00000000e+00)
25              	bot_wall	(-2.63863379e-03 -9.31206974e-19 0.00000000e+00)	(-2.63863379e-03 -9.31206974e-19 0.00000000e+00)
25.5            	top_wall	(-2.62036374e-03 5.93866900e-28 0.00000000e+00)	(-2.62036374e-03 5.93866900e-28 0.00000000e+00)
25.5            	bot_wall	(-2.62036377e-03 -7.36555306e-19 0.00000000e+00)	(-2.62036377e-03 -7.36555306e-19 0.00000000e+00)
26              	top_wall	(-2.60263621e-03 5.45173642e-28 0.00000000e+00)	(-2.60263621e-03 5.45173642e-28 0.00000000e+00)
26              	bot_wall	(-2.60263625e-03 -6.72949820e-19 0.00000000e+00)	(-2.60263625e-03 -6.72949820e-19 0.00000000e+00)
26.5            	top_wall	(-2.58542511e-03 6.19322475e-28 0.00000000e+00)	(-2.58542511e-03 6.19322475e-28 0.00000000e+00)
26.5            	bot_wall	(-2.58542515e-03 -7.85168734e-19 0.00000000e+00)	(-2.58542515e-03 -7.85168734e-19 0.00000000e+00)
27              	top_wall	(-2.56870644e-03 -3.12818212e-29 0.00000000e+00)	(-2.56870644e-03 -3.12818212e-29 0.00000000e+00)
27              	bot_wall	(-2.56870648e-03 -5.32447712e-19 0.00000000e+00)	(-2.56870648e-03 -5.32447712e-19 0.00000000e+00)
27.5            	top_wall	(-2.55245759e-03 5.22018250e-28 0.00000000e+00)	(-2.55245759e-03 5.22018250e-28 0.00000000e+00)
27.5            	bot_wall	(-2.55245763e-03 -8.21441391e-19 0.00000000e+00)	(-2.55245763e-03 -8.21441391e-19 0.00000000e+00)
28              	top_wall	(-2.53665732e-03 2.97251260e-28 0.00000000e+00)	(-2.53665732e-03 2.97251260e-28 0.00000000e+00)
28              	bot_wall	(-2.53665735e-03 -3.18302288e-19 0.00000000e+00)	(-2.53665735e-03 -3.18302288e-19 0.00000000e+00)
28.5            	top_wall	(-2.52128590e-03 4.72040300e-28 0.00000000e+00)	(-2.52128590e-03 4.72040300e-28 0.00000000e+00)
28.5            	bot_wall	(-2.52128594e-03 -8.08223188e-19 0.00000000e+00)	(-2.52128594e-03 -8.08223188e-19 0.00000000e+00)
29              	top_wall	(-2.50632458e-03 9.84365712e-29 0.00000000e+00)	(-2.50632458e-03 9.84365712e-29 0.00000000e+00)
29              	bot_wall	(-2.50632462e-03 -6.09417710e-19 0.00000000e+00)	(-2.50632462e-03 -6.09417710e-19 0.00000000e+00)
29.5            	top_wall	(-2.49175581e-03 4.63651547e-28 0.00000000e+00)	(-2.49175581e-03 4.63651547e-28 0.00000000e+00)
29.5            	bot_wall	(-2.49175585e-03 -6.38065462e-19 0.00000000e+00)	(-2.49175585e-03 -6.38065462e-19 0.00000000e+00)
30              	top_wall	(-2.47756320e-03 4.24437380e-28 0.00000000e+00)	(-2.47756320e-03 4.24437380e-28 0.00000000e+00)
30              	bot_wall	(-2.47756324e-03 -3.44315285e-19 0.00000000e+00)	(-2.47756324e-03 -3.44315285e-19 0.00000000e+00)
30.5            	top_wall	(-2.46373108e-03 -1.39531922e-28 0.00000000e+00)	(-2.46373108e-03 -1.39531922e-28 0.00000000e+00)
30.5            	bot_wall	(-2.46373112e-03 -1.81441494e-19 0.00000000e+00)	(-2.46373112e-03 -1.81441494e-19 0.00000000e+00)
31              	top_wall	(-2.45024477e-03 -8.71966220e-28 0.00000000e+00)	(-2.45024477e-03 -8.71966220e-28 0.00000000e+00)
31              	bot_wall	(-2.45024481e-03 -3.84185829e-19 0.00000000e+00)	(-2.45024481e-03 -3.84185829e-19 0.00000000e+00)
31.5            	top_wall	(-2.43709053e-03 -7.60654479e-28 0.00000000e+00)	(-2.43709053e-03 -7.60654479e-28 0.00000000e+00)
31.5            	bot_wall	(-2.43709057e-03 -5.88172725e-19 0.00000000e+00)	(-2.43709057e-03 -5.88172725e-19 0.00000000e+00)
32              	top_wall	(-2.42425519e-03 -8.04249608e-28 0.00000000e+00)	(-2.42425519e-03 -8.04249608e-28 0.00000000e+00)
32              	bot_wall	(-2.42425523e-03 -3.34527598e-19 0.00000000e+00)	(-2.42425523e-03 -3.34527598e-19 0.00000000e+00)
32.5            	top_wall	(-2.41172634e-03 -6.01874039e-28 0.00000000e+00)	(-2.41172634e-03 -6.01874039e-28 0.00000000e+00)
32.5            	bot_wall	(-2.41172638e-03 -4.37280739e-19 0.00000000e+00)	(-2.41172638e-03 -4.37280739e-19 0.00000000e+00)
33              	top_wall	(-2.39949226e-03 -1.42616347e-27 0.00000000e+00)	(-2.39949226e-03 -1.42616347e-27 0.00000000e+00)
33              	bot_wall	(-2.39949230e-03 -3.69860579e-19 0.00000000e+00)	(-2.39949230e-03 -3.69860579e-19 0.00000000e+00)
33.5            	top_wall	(-2.38754207e-03 -1.39753169e-27 0.00000000e+00)	(-2.38754207e-03 -1.39753169e-27 0.00000000e+00)
33.5            	bot_wall	(-2.38754211e-03 -2.77464494e-19 0.00000000e+00)	(-2.38754211e-03 -2.77464494e-19 0.00000000e+00)
34              	top_wall	(-2.37586494e-03 -1.74582262e-27 0.00000000e+00)	(-2.37586494e-03 -1.74582262e-27 0.00000000e+00)
34              	bot_wall	(-2.37586498e-03 -6.56349224e-19 0.00000000e+00)	(-2.37586498e-03 -6.56349224e-19 0.00000000e+00)
34.5            	top_wall	(-2.36445096e-03 -1.87874031e-27 0.00000000e+00)	(-2.36445096e-03 -1.87874031e-27 0.00000000e+00)
34.5            	bot_wall	(-2.36445100e-03 -2.54618070e-19 0.00000000e+00)	(-2.36445100e-03 -2.54618070e-19 0.00000000e+00)
35              	top_wall	(-2.35329082e-03 -2.26418159e-27 0.00000000e+00)	(-2.35329082e-03 -2.26418159e-27 0.00000000e+00)
35              	bot_wall	(-2.35329085e-03 -1.06388229e-18 0.00000000e+00)	(-2.35329085e-03 -1.06388229e-18 0.00000000e+00)
35.5            	top_wall	(-2.34237528e-03 -1.77058390e-27 0.00000000e+00)	(-2.34237528e-03 -1.77058390e-27 0.00000000e+00)
35.5            	bot_wall	(-2.34237532e-03 -1.06693014e-18 0.00000000e+00)	(-2.34237532e-03 -1.06693014e-18 0.00000000e+00)
36              	top_wall	(-2.33169582e-03 -3.07399425e-27 0.00000000e+00)	(-2.33169582e-03 -3.07399425e-27 0.00000000e+00)
36              	bot_wall	(-2.33169586e-03 -7.71382753e-19 0.00000000e+00)	(-2.33169586e-03 -7.71382753e-19 0.00000000e+00)
36.5            	top_wall	(-2.32124434e-03 -3.33065909e-27 0.00000000e+00)	(-2.32124434e-03 -3.33065909e-27 0.00000000e+00)
36.5            	bot_wall	(-2.32124438e-03 -8.98534924e-19 0.00000000e+00)	(-2.32124438e-03 -8.98534924e-19 0.00000000e+00)
37              	top_wall	(-2.31101309e-03 -3.89882478e-27 0.00000000e+00)	(-2.31101309e-03 -3.89882478e-27 0.00000000e+00)
37              	bot_wall	(-2.31101313e-03 -3.98354758e-19 0.00000000e+00)	(-2.31101313e-03 -3.98354758e-19 0.00000000e+00)
37.5            	top_wall	(-2.30099453e-03 -4.20460114e-27 0.00000000e+00)	(-2.30099453e-03 -4.20460114e-27 0.00000000e+00)
37.5            	bot_wall	(-2.30099457e-03 -5.64349034e-19 0.00000000e+00)	(-2.30099457e-03 -5.64349034e-19 0.00000000e+00)
38              	top_wall	(-2.29118164e-03 -3.91917765e-27 0.00000000e+00)	(-2.29118164e-03 -3.91917765e-27 0.00000000e+00)
38              	bot_wall	(-2.29118167e-03 -8.63840959e-19 0.00000000e+00)	(-2.29118167e-03 -8.63840959e-19 0.00000000e+00)
38.5            	top_wall	(-2.28156780e-03 -3.38196739e-27 0.00000000e+00)	(-2.28156780e-03 -3.38196739e-27 0.00000000e+00)
38.5            	bot_wall	(-2.28156783e-03 -9.33075854e-19 0.00000000e+00)	(-2.28156783e-03 -9.33075854e-19 0.00000000e+00)
39              	top_wall	(-2.27214644e-03 -3.27573809e-27 0.00000000e+00)	(-2.27214644e-03 -3.27573809e-27 0.00000000e+00)
39              	bot_wall	(-2.27214648e-03 -1.05637059e-18 0.00000000e+00)	(-2.27214648e-03 -1.05637059e-18 0.00000000e+00)
39.5            	top_wall	(-2.26291140e-03 -3.20793816e-27 0.00000000e+00)	(-2.26291140e-03 -3.20793816e-27 0.00000000e+00)
39.5            	bot_wall	(-2.26291144e-03 -7.57878230e-19 0.00000000e+00)	(-2.26291144e-03 -7.57878230e-19 0.00000000e+00)
40              	top_wall	(-2.25385682e-03 -3.56007961e-27 0.00000000e+00)	(-2.25385682e-03 -3.56007961e-27 0.00000000e+00)
40              	bot_wall	(-2.25385686e-03 -6.70623757e-19 0.00000000e+00)	(-2.25385686e-03 -6.70623757e-19 0.00000000e+00)
40.5            	top_wall	(-2.24497722e-03 -3.38912367e-27 0.00000000e+00)	(-2.24497722e-03 -3.38912367e-27 0.00000000e+00)
40.5            	bot_wall	(-2.24497726e-03 -8.19260822e-19 0.00000000e+00)	(-2.24497726e-03 -8.19260822e-19 0.00000000e+00)
41              	top_wall	(-2.23626704e-03 -3.75615310e-27 0.00000000e+00)	(-2.23626704e-03 -3.75615310e-27 0.00000000e+00)
41              	bot_wall	(-2.23626707e-03 -1.16694861e-18 0.00000000e+00)	(-2.23626707e-03 -1.16694861e-18 0.00000000e+00)
41.5            	top_wall	(-2.22772113e-03 -4.39663506e-27 0.00000000e+00)	(-2.22772113e-03 -4.39663506e-27 0.00000000e+00)
41.5            	bot_wall	(-2.22772117e-03 -1.38612237e-18 0.00000000e+00)	(-2.22772117e-03 -1.38612237e-18 0.00000000e+00)
42              	top_wall	(-2.21933459e-03 -4.66968523e-27 0.00000000e+00)	(-2.21933459e-03 -4.66968523e-27 0.00000000e+00)
42              	bot_wall	(-2.21933462e-03 -8.73177475e-19 0.00000000e+00)	(-2.21933462e-03 -8.73177475e-19 0.00000000e+00)
42.5            	top_wall	(-2.21110280e-03 -4.14534900e-27 0.00000000e+00)	(-2.21110280e-03 -4.14534900e-27 0.00000000e+00)
42.5            	bot_wall	(-2.21110283e-03 -5.95860379e-19 0.00000000e+00)	(-2.21110283e-03 -5.95860379e-19 0.00000000e+00)
43              	top_wall	(-2.20302107e-03 -4.47987839e-27 0.00000000e+00)	(-2.20302107e-03 -4.47987839e-27 0.00000000e+00)
43              	bot_wall	(-2.20302110e-03 -8.91854900e-19 0.00000000e+00)	(-2.20302110e-03 -8.91854900e-19 0.00000000e+00)
43.5            	top_wall	(-2.19508505e-03 -4.41510573e-27 0.00000000e+00)	(-2.19508505e-03 -4.41510573e-27 0.00000000e+00)
43.5            	bot_wall	(-2.19508509e-03 -9.20915756e-19 0.00000000e+00)	(-2.19508509e-03 -9.20915756e-19 0.00000000e+00)
44              	top_wall	(-2.18729057e-03 -4.59599458e-27 0.00000000e+00)	(-2.18729057e-03 -4.59599458e-27 0.00000000e+00)
44              	bot_wall	(-2.18729061e-03 -1.23710405e-18 0.00000000e+00)	(-2.18729061e-03 -1.23710405e-18 0.00000000e+00)
44.5            	top_wall	(-2.17963372e-03 -4.22004231e-27 0.00000000e+00)	(-2.17963372e-03 -4.22004231e-27 0.00000000e+00)
44.5            	bot_wall	(-2.17963375e-03 -7.74334139e-19 0.00000000e+00)	(-2.17963375e-03 -7.74334139e-19 0.00000000e+00)
45              	top_wall	(-2.17211056e-03 -4.57553819e-27 0.00000000e+00)	(-2.17211056e-03 -4.57553819e-27 0.00000000e+00)
45              	bot_wall	(-2.17211060e-03 -7.74521301e-19 0.00000000e+00)	(-2.17211060e-03 -7.74521301e-19 0.00000000e+00)
45.5            	top_wall	(-2.16471733e-03 -4.16636469e-27 0.00000000e+00)	(-2.16471733e-03 -4.16636469e-27 0.00000000e+00)
45.5            	bot_wall	(-2.16471737e-03 -1.00968711e-18 0.00000000e+00)	(-2.16471737e-03 -1.00968711e-18 0.00000000e+00)
46              	top_wall	(-2.15745049e-03 -4.30125431e-27 0.00000000e+00)	(-2.15745049e-03 -4.30125431e-27 0.00000000e+00)
46              	bot_wall	(-2.15745052e-03 -8.44159783e-19 0.00000000e+00)	(-2.15745052e-03 -8.44159783e-19 0.00000000e+00)
46.5            	top_wall	(-2.15030659e-03 -4.05121011e-27 0.00000000e+00)	(-2.15030659e-03 -4.05121011e-27 0.00000000e+00)
46.5            	bot_wall	(-2.15030663e-03 -9.38511603e-19 0.00000000e+00)	(-2.15030663e-03 -9.38511603e-19 0.00000000e+00)
47              	top_wall	(-2.14328254e-03 -3.98068595e-27 0.00000000e+00)	(-2.14328254e-03 -3.98068595e-27 0.00000000e+00)
47              	bot_wall	(-2.14328257e-03 -1.16120103e-18 0.00000000e+00)	(-2.14328257e-03 -1.16120103e-18 0.00000000e+00)
47.5            	top_wall	(-2.13637487e-03 -3.50626756e-27 0.00000000e+00)	(-2.13637487e-03 -3.50626756e-27 0.00000000e+00)
47.5            	bot_wall	(-2.13637491e-03 -3.13173314e-19 0.00000000e+00)	(-2.13637491e-03 -3.13173314e-19 0.00000000e+00)
48              	top_wall	(-2.12958060e-03 -3.19694888e-27 0.00000000e+00)	(-2.12958060e-03 -3.19694888e-27 0.00000000e+00)
48              	bot_wall	(-2.12958063e-03 -4.03247261e-19 0.00000000e+00)	(-2.12958063e-03 -4.03247261e-19 0.00000000e+00)
48.5            	top_wall	(-2.12289677e-03 -3.93819161e-27 0.00000000e+00)	(-2.12289677e-03 -3.93819161e-27 0.00000000e+00)
48.5            	bot_wall	(-2.12289681e-03 -5.63570069e-19 0.00000000e+00)	(-2.12289681e-03 -5.63570069e-19 0.00000000e+00)
49              	top_wall	(-2.11632065e-03 -4.27692520e-27 0.00000000e+00)	(-2.11632065e-03 -4.27692520e-27 0.00000000e+00)
49              	bot_wall	(-2.11632068e-03 -6.80396015e-19 0.00000000e+00)	(-2.11632068e-03 -6.80396015e-19 0.00000000e+00)
49.5            	top_wall	(-2.10984940e-03 -3.90876190e-27 0.00000000e+00)	(-2.10984940e-03 -3.90876190e-27 0.00000000e+00)
49.5            	bot_wall	(-2.10984944e-03 -5.05463953e-19 0.00000000e+00)	(-2.10984944e-03 -5.05463953e-19 0.00000000e+00)
50              	top_wall	(-2.10348034e-03 -3.77207651e-27 0.00000000e+00)	(-2.10348034e-03 -3.77207651e-27 0.00000000e+00)
50              	bot_wall	(-2.10348037e-03 -6.02945168e-19 0.00000000e+00)	(-2.10348037e-03 -6.02945168e-19 0.00000000e+00)
50.5            	top_wall	(-2.09721091e-03 -3.96636091e-27 0.00000000e+00)	(-2.09721091e-03 -3.96636091e-27 0.00000000e+00)
50.5            	bot_wall	(-2.09721095e-03 -9.94837396e-19 0.00000000e+00)	(-2.09721095e-03 -9.94837396e-19 0.00000000e+00)
51              	top_wall	(-2.09103866e-03 -4.32303308e-27 0.00000000e+00)	(-2.09103866e-03 -4.32303308e-27 0.00000000e+00)
51              	bot_wall	(-2.09103870e-03 -1.27632958e-18 0.00000000e+00)	(-2.09103870e-03 -1.27632958e-18 0.00000000e+00)
51.5            	top_wall	(-2.08496134e-03 -4.32814554e-27 0.00000000e+00)	(-2.08496134e-03 -4.32814554e-27 0.00000000e+00)
51.5            	bot_wall	(-2.08496138e-03 -7.31931124e-19 0.00000000e+00)	(-2.08496138e-03 -7.31931124e-19 0.00000000e+00)
52              	top_wall	(-2.07897649e-03 -4.49948920e-27 0.00000000e+00)	(-2.07897649e-03 -4.49948920e-27 0.00000000e+00)
52              	bot_wall	(-2.07897652e-03 -1.14327689e-18 0.00000000e+00)	(-2.07897652e-03 -1.14327689e-18 0.00000000e+00)
52.5            	top_wall	(-2.07308188e-03 -4.39412096e-27 0.00000000e+00)	(-2.07308188e-03 -4.39412096e-27 0.00000000e+00)
52.5            	bot_wall	(-2.07308192e-03 -9.94520527e-19 0.00000000e+00)	(-2.07308192e-03 -9.94520527e-19 0.00000000e+00)
53              	top_wall	(-2.06727538e-03 -4.56394336e-27 0.00000000e+00)	(-2.06727538e-03 -4.56394336e-27 0.00000000e+00)
53              	bot_wall	(-2.06727541e-03 -7.43420890e-19 0.00000000e+00)	(-2.06727541e-03 -7.43420890e-19 0.00000000e+00)
53.5            	top_wall	(-2.06155490e-03 -4.59876500e-27 0.00000000e+00)	(-2.06155490e-03 -4.59876500e-27 0.00000000e+00)
53.5            	bot_wall	(-2.06155494e-03 -5.29519146e-19 0.00000000e+00)	(-2.06155494e-03 -5.29519146e-19 0.00000000e+00)
54              	top_wall	(-2.05591858e-03 -3.89504342e-27 0.00000000e+00)	(-2.05591858e-03 -3.89504342e-27 0.00000000e+00)
54              	bot_wall	(-2.05591862e-03 -1.01347830e-18 0.00000000e+00)	(-2.05591862e-03 -1.01347830e-18 0.00000000e+00)
54.5            	top_wall	(-2.05036430e-03 -3.89189159e-27 0.00000000e+00)	(-2.05036430e-03 -3.89189159e-27 0.00000000e+00)
54.5            	bot_wall	(-2.05036433e-03 -9.26038653e-19 0.00000000e+00)	(-2.05036433e-03 -9.26038653e-19 0.00000000e+00)
55              	top_wall	(-2.04489017e-03 -3.58684787e-27 0.00000000e+00)	(-2.04489017e-03 -3.58684787e-27 0.00000000e+00)
55              	bot_wall	(-2.04489021e-03 -9.39110979e-19 0.00000000e+00)	(-2.04489021e-03 -9.39110979e-19 0.00000000e+00)
55.5            	top_wall	(-2.03949439e-03 -2.64992568e-27 0.00000000e+00)	(-2.03949439e-03 -2.64992568e-27 0.00000000e+00)
55.5            	bot_wall	(-2.03949443e-03 -1.17596382e-18 0.00000000e+00)	(-2.03949443e-03 -1.17596382e-18 0.00000000e+00)
56              	top_wall	(-2.03417519e-03 -3.42070303e-27 0.00000000e+00)	(-2.03417519e-03 -3.42070303e-27 0.00000000e+00)
56              	bot_wall	(-2.03417523e-03 -5.94972358e-19 0.00000000e+00)	(-2.03417523e-03 -5.94972358e-19 0.00000000e+00)
56.5            	top_wall	(-2.02893098e-03 -3.25460605e-27 0.00000000e+00)	(-2.02893098e-03 -3.25460605e-27 0.00000000e+00)
56.5            	bot_wall	(-2.02893102e-03 -1.07599608e-18 0.00000000e+00)	(-2.02893102e-03 -1.07599608e-18 0.00000000e+00)
57              	top_wall	(-2.02375998e-03 -3.19056096e-27 0.00000000e+00)	(-2.02375998e-03 -3.19056096e-27 0.00000000e+00)
57              	bot_wall	(-2.02376002e-03 -1.05030422e-18 0.00000000e+00)	(-2.02376002e-03 -1.05030422e-18 0.00000000e+00)
57.5            	top_wall	(-2.01866055e-03 -2.79435085e-27 0.00000000e+00)	(-2.01866055e-03 -2.79435085e-27 0.00000000e+00)
57.5            	bot_wall	(-2.01866059e-03 -1.68403711e-18 0.00000000e+00)	(-2.01866059e-03 -1.68403711e-18 0.00000000e+00)
58              	top_wall	(-2.01363115e-03 -3.09849670e-27 0.00000000e+00)	(-2.01363115e-03 -3.09849670e-27 0.00000000e+00)
58              	bot_wall	(-2.01363119e-03 -1.55925874e-18 0.00000000e+00)	(-2.01363119e-03 -1.55925874e-18 0.00000000e+00)
58.5            	top_wall	(-2.00867027e-03 -2.51503565e-27 0.00000000e+00)	(-2.00867027e-03 -2.51503565e-27 0.00000000e+00)
58.5            	bot_wall	(-2.00867031e-03 -1.21235372e-18 0.00000000e+00)	(-2.00867031e-03 -1.21235372e-18 0.00000000e+00)
59              	top_wall	(-2.00377644e-03 -2.37107140e-27 0.00000000e+00)	(-2.00377644e-03 -2.37107140e-27 0.00000000e+00)
59              	bot_wall	(-2.00377647e-03 -1.24705979e-18 0.00000000e+00)	(-2.00377647e-03 -1.24705979e-18 0.00000000e+00)
59.5            	top_wall	(-1.99894844e-03 -3.15742351e-27 0.00000000e+00)	(-1.99894844e-03 -3.15742351e-27 0.00000000e+00)
59.5            	bot_wall	(-1.99894847e-03 -7.62685239e-19 0.00000000e+00)	(-1.99894847e-03 -7.62685239e-19 0.00000000e+00)
60              	top_wall	(-1.99418457e-03 -3.36672219e-27 0.00000000e+00)	(-1.99418457e-03 -3.36672219e-27 0.00000000e+00)
60              	bot_wall	(-1.99418461e-03 -8.29888231e-19 0.00000000e+00)	(-1.99418461e-03 -8.29888231e-19 0.00000000e+00)
60.5            	top_wall	(-1.98948360e-03 -3.52344897e-27 0.00000000e+00)	(-1.98948360e-03 -3.52344897e-27 0.00000000e+00)
60.5            	bot_wall	(-1.98948364e-03 -8.63674637e-19 0.00000000e+00)	(-1.98948364e-03 -8.63674637e-19 0.00000000e+00)