/*--------------------------------*- C++ -*----------------------------------*\
| =========                 |                                                 |
| \\      /  F ield         | OpenFOAM: The Open Source CFD Toolbox           |
|  \\    /   O peration     | Version:  2312                                  |
|   \\  /    A nd           | Website:  www.openfoam.com                      |
|    \\/     M anipulation  |                                                 |
\*---------------------------------------------------------------------------*/
FoamFile
{
    version     2.0;
    format      ascii;
    arch        "LSB;label=32;scalar=64";
    class       volScalarField;
    location    "9.91";
    object      k;
}
// * * * * * * * * * * * * * * * * * * * * * * * * * * * * * * * * * * * * * //

dimensions      [0 2 -2 0 0 0 0];

internalField   nonuniform List<scalar> 
500
(
0.000327464
0.000791725
0.00331902
0.00509293
0.00597909
0.00646258
0.00675139
0.00693523
0.00705709
0.0071397
0.00719606
0.00723408
0.00725886
0.00727377
0.00728118
0.00728277
0.00727977
0.00727309
0.00726342
0.00725131
0.00723719
0.00722138
0.00720415
0.00718573
0.00716629
0.00714597
0.0071249
0.00710317
0.00708087
0.00705808
0.00703485
0.00701123
0.00698726
0.00696298
0.00693843
0.00691362
0.00688859
0.00686335
0.00683791
0.0068123
0.00678652
0.00676059
0.00673451
0.0067083
0.00668195
0.00665548
0.00662889
0.00660219
0.00657537
0.00654845
0.00652142
0.00649429
0.00646706
0.00643973
0.0064123
0.00638478
0.00635716
0.00632945
0.00630164
0.00627375
0.00624577
0.0062177
0.00618954
0.00616129
0.00613296
0.00610454
0.00607604
0.00604746
0.0060188
0.00599006
0.00596124
0.00593234
0.00590337
0.00587432
0.00584521
0.00581602
0.00578676
0.00575744
0.00572806
0.00569861
0.00566911
0.00563954
0.00560992
0.00558025
0.00555053
0.00552077
0.00549096
0.00546111
0.00543122
0.00540129
0.00537134
0.00534135
0.00531134
0.00528131
0.00525126
0.00522119
0.00519111
0.00516103
0.00513094
0.00510085
0.00507076
0.00504068
0.00501061
0.00498055
0.00495052
0.0049205
0.00489051
0.00486055
0.00483063
0.00480074
0.00477089
0.0047411
0.00471135
0.00468165
0.00465201
0.00462244
0.00459292
0.00456348
0.00453412
0.00450483
0.00447562
0.00444649
0.00441746
0.00438851
0.00435967
0.00433092
0.00430228
0.00427374
0.00424532
0.00421701
0.00418882
0.00416075
0.0041328
0.00410499
0.0040773
0.00404975
0.00402234
0.00399507
0.00396794
0.00394096
0.00391413
0.00388746
0.00386094
0.00383458
0.00380839
0.00378236
0.00375649
0.0037308
0.00370528
0.00367994
0.00365477
0.00362979
0.00360499
0.00358038
0.00355595
0.00353172
0.00350768
0.00348383
0.00346018
0.00343673
0.00341349
0.00339044
0.00336761
0.00334498
0.00332256
0.00330036
0.00327836
0.00325659
0.00323503
0.00321369
0.00319257
0.00317168
0.00315101
0.00313057
0.00311036
0.00309037
0.00307062
0.0030511
0.00303181
0.00301276
0.00299395
0.00297538
0.00295704
0.00293895
0.0029211
0.0029035
0.00288614
0.00286903
0.00285216
0.00283555
0.00281918
0.00280307
0.00278721
0.00277161
0.00275625
0.00274116
0.00272632
0.00271174
0.00269742
0.00268336
0.00266956
0.00265603
0.00264275
0.00262974
0.002617
0.00260452
0.0025923
0.00258036
0.00256868
0.00255726
0.00254612
0.00253525
0.00252465
0.00251432
0.00250426
0.00249448
0.00248496
0.00247572
0.00246676
0.00245807
0.00244966
0.00244152
0.00243366
0.00242607
0.00241876
0.00241173
0.00240498
0.00239851
0.00239231
0.00238639
0.00238076
0.0023754
0.00237033
0.00236553
0.00236102
0.00235678
0.00235283
0.00234916
0.00234577
0.00234266
0.00233983
0.00233729
0.00233503
0.00233305
0.00233135
0.00232994
0.0023288
0.00232796
0.00232739
0.00232711
0.00232711
0.00232739
0.00232795
0.0023288
0.00232993
0.00233134
0.00233304
0.00233502
0.00233728
0.00233982
0.00234265
0.00234576
0.00234915
0.00235282
0.00235677
0.002361
0.00236552
0.00237032
0.00237539
0.00238075
0.00238638
0.0023923
0.00239849
0.00240497
0.00241172
0.00241875
0.00242606
0.00243364
0.0024415
0.00244964
0.00245806
0.00246675
0.00247571
0.00248495
0.00249446
0.00250425
0.0025143
0.00252463
0.00253523
0.0025461
0.00255725
0.00256866
0.00258033
0.00259228
0.0026045
0.00261698
0.00262972
0.00264273
0.00265601
0.00266954
0.00268334
0.0026974
0.00271172
0.0027263
0.00274114
0.00275623
0.00277158
0.00278719
0.00280305
0.00281916
0.00283553
0.00285214
0.002869
0.00288612
0.00290348
0.00292108
0.00293893
0.00295702
0.00297536
0.00299393
0.00301275
0.0030318
0.00305108
0.0030706
0.00309036
0.00311034
0.00313056
0.003151
0.00317167
0.00319257
0.00321369
0.00323503
0.00325659
0.00327836
0.00330036
0.00332256
0.00334498
0.00336761
0.00339045
0.00341349
0.00343674
0.00346019
0.00348384
0.00350769
0.00353173
0.00355596
0.00358039
0.003605
0.0036298
0.00365479
0.00367995
0.0037053
0.00373082
0.00375651
0.00378237
0.0038084
0.0038346
0.00386096
0.00388748
0.00391415
0.00394098
0.00396796
0.00399509
0.00402236
0.00404977
0.00407732
0.00410501
0.00413282
0.00416077
0.00418884
0.00421703
0.00424534
0.00427376
0.0043023
0.00433094
0.00435969
0.00438853
0.00441747
0.00444651
0.00447563
0.00450484
0.00453413
0.0045635
0.00459294
0.00462245
0.00465203
0.00468166
0.00471136
0.00474111
0.00477091
0.00480075
0.00483064
0.00486056
0.00489052
0.00492051
0.00495053
0.00498056
0.00501062
0.00504069
0.00507077
0.00510086
0.00513095
0.00516104
0.00519112
0.0052212
0.00525127
0.00528132
0.00531135
0.00534136
0.00537134
0.0054013
0.00543122
0.00546111
0.00549096
0.00552077
0.00555054
0.00558026
0.00560993
0.00563955
0.00566911
0.00569862
0.00572806
0.00575745
0.00578677
0.00581602
0.00584521
0.00587433
0.00590337
0.00593234
0.00596124
0.00599006
0.0060188
0.00604746
0.00607605
0.00610454
0.00613296
0.00616129
0.00618954
0.0062177
0.00624577
0.00627375
0.00630165
0.00632945
0.00635716
0.00638478
0.0064123
0.00643973
0.00646706
0.00649429
0.00652142
0.00654845
0.00657538
0.00660219
0.0066289
0.00665549
0.00668195
0.0067083
0.00673451
0.00676059
0.00678652
0.0068123
0.00683791
0.00686335
0.00688859
0.00691363
0.00693843
0.00696299
0.00698726
0.00701123
0.00703485
0.00705808
0.00708088
0.00710317
0.0071249
0.00714597
0.00716629
0.00718573
0.00720416
0.00722138
0.00723719
0.00725132
0.00726342
0.00727309
0.00727977
0.00728278
0.00728119
0.00727377
0.00725886
0.00723409
0.00719606
0.0071397
0.00705709
0.00693523
0.0067514
0.00646258
0.00597909
0.00509293
0.00331903
0.000791726
0.000327464
)
;

boundaryField
{
    top_wall
    {
        type            kLowReWallFunction;
        value           uniform 2.00675e-06;
    }
    inlet
    {
        type            cyclic;
    }
    bot_wall
    {
        type            kLowReWallFunction;
        value           uniform 2.00675e-06;
    }
    outlet
    {
        type            cyclic;
    }
    frontAndBack
    {
        type            empty;
    }
}


// ************************************************************************* //
