/*--------------------------------*- C++ -*----------------------------------*\
| =========                 |                                                 |
| \\      /  F ield         | OpenFOAM: The Open Source CFD Toolbox           |
|  \\    /   O peration     | Version:  2312                                  |
|   \\  /    A nd           | Website:  www.openfoam.com                      |
|    \\/     M anipulation  |                                                 |
\*---------------------------------------------------------------------------*/
FoamFile
{
    version     2.0;
    format      ascii;
    arch        "LSB;label=32;scalar=64";
    class       volScalarField;
    location    "9.91";
    object      nut;
}
// * * * * * * * * * * * * * * * * * * * * * * * * * * * * * * * * * * * * * //

dimensions      [0 2 -1 0 0 0 0];

internalField   nonuniform List<scalar> 
500
(
3.27199e-07
3.86167e-06
3.48754e-05
8.81268e-05
0.000149425
0.000214726
0.000282249
0.000351032
0.000420498
0.000490279
0.000560124
0.000629853
0.000699333
0.000768459
0.000837145
0.00090532
0.000972925
0.0010399
0.00110621
0.0011718
0.00123664
0.00130068
0.00136389
0.00142625
0.00148771
0.00154826
0.00160786
0.00166649
0.00172412
0.00178074
0.00183632
0.00189085
0.0019443
0.00199666
0.00204792
0.00209806
0.00214707
0.00219493
0.00224165
0.00228721
0.00233161
0.00237483
0.00241688
0.00245776
0.00249746
0.00253597
0.00257332
0.00260948
0.00264448
0.00267831
0.00271098
0.00274249
0.00277285
0.00280208
0.00283017
0.00285714
0.00288301
0.00290778
0.00293146
0.00295407
0.00297562
0.00299613
0.00301561
0.00303408
0.00305156
0.00306805
0.00308358
0.00309817
0.00311183
0.00312458
0.00313645
0.00314744
0.00315758
0.00316688
0.00317538
0.00318308
0.00319
0.00319618
0.00320161
0.00320633
0.00321036
0.00321371
0.00321641
0.00321847
0.00321991
0.00322076
0.00322103
0.00322074
0.00321991
0.00321856
0.0032167
0.00321436
0.00321155
0.00320829
0.00320461
0.0032005
0.003196
0.00319111
0.00318586
0.00318026
0.00317433
0.00316808
0.00316152
0.00315467
0.00314754
0.00314016
0.00313252
0.00312465
0.00311655
0.00310825
0.00309974
0.00309105
0.00308218
0.00307314
0.00306395
0.00305462
0.00304515
0.00303555
0.00302584
0.00301602
0.0030061
0.00299609
0.002986
0.00297583
0.00296559
0.00295529
0.00294494
0.00293454
0.00292409
0.00291362
0.00290311
0.00289257
0.00288202
0.00287145
0.00286087
0.00285028
0.0028397
0.00282911
0.00281854
0.00280797
0.00279742
0.00278689
0.00277638
0.00276589
0.00275543
0.002745
0.0027346
0.00272424
0.00271392
0.00270364
0.0026934
0.0026832
0.00267306
0.00266296
0.00265291
0.00264292
0.00263298
0.0026231
0.00261328
0.00260351
0.00259381
0.00258417
0.0025746
0.00256509
0.00255565
0.00254628
0.00253698
0.00252776
0.0025186
0.00250952
0.00250051
0.00249158
0.00248273
0.00247396
0.00246527
0.00245666
0.00244813
0.00243969
0.00243133
0.00242305
0.00241486
0.00240676
0.00239875
0.00239083
0.002383
0.00237527
0.00236762
0.00236007
0.00235262
0.00234526
0.00233799
0.00233083
0.00232376
0.0023168
0.00230993
0.00230317
0.00229651
0.00228996
0.00228351
0.00227716
0.00227093
0.00226479
0.00225877
0.00225286
0.00224706
0.00224137
0.00223579
0.00223032
0.00222497
0.00221974
0.00221461
0.00220961
0.00220472
0.00219995
0.0021953
0.00219077
0.00218636
0.00218207
0.0021779
0.00217385
0.00216993
0.00216613
0.00216246
0.00215891
0.00215549
0.00215219
0.00214902
0.00214598
0.00214306
0.00214028
0.00213762
0.0021351
0.0021327
0.00213043
0.0021283
0.0021263
0.00212443
0.00212269
0.00212108
0.00211961
0.00211827
0.00211706
0.00211599
0.00211505
0.00211424
0.00211357
0.00211303
0.00211263
0.00211236
0.00211222
0.00211222
0.00211236
0.00211263
0.00211303
0.00211357
0.00211424
0.00211505
0.00211599
0.00211706
0.00211827
0.00211961
0.00212108
0.00212269
0.00212443
0.0021263
0.0021283
0.00213044
0.0021327
0.0021351
0.00213762
0.00214028
0.00214306
0.00214598
0.00214902
0.00215219
0.00215549
0.00215891
0.00216246
0.00216613
0.00216993
0.00217385
0.0021779
0.00218207
0.00218636
0.00219077
0.0021953
0.00219995
0.00220472
0.00220961
0.00221462
0.00221974
0.00222498
0.00223033
0.00223579
0.00224137
0.00224706
0.00225287
0.00225878
0.0022648
0.00227093
0.00227717
0.00228351
0.00228997
0.00229652
0.00230318
0.00230994
0.00231681
0.00232377
0.00233084
0.002338
0.00234526
0.00235262
0.00236008
0.00236763
0.00237527
0.00238301
0.00239084
0.00239876
0.00240677
0.00241487
0.00242306
0.00243133
0.00243969
0.00244814
0.00245667
0.00246528
0.00247397
0.00248274
0.00249159
0.00250052
0.00250952
0.0025186
0.00252776
0.00253698
0.00254628
0.00255565
0.00256509
0.0025746
0.00258417
0.00259381
0.00260351
0.00261327
0.00262309
0.00263297
0.00264291
0.0026529
0.00266295
0.00267305
0.00268319
0.00269339
0.00270363
0.00271391
0.00272423
0.00273459
0.00274499
0.00275542
0.00276588
0.00277636
0.00278688
0.00279741
0.00280796
0.00281853
0.0028291
0.00283969
0.00285027
0.00286086
0.00287144
0.00288201
0.00289256
0.0029031
0.00291361
0.00292409
0.00293453
0.00294493
0.00295529
0.00296559
0.00297583
0.002986
0.00299609
0.0030061
0.00301602
0.00302584
0.00303555
0.00304515
0.00305462
0.00306396
0.00307315
0.00308218
0.00309105
0.00309975
0.00310825
0.00311656
0.00312466
0.00313253
0.00314017
0.00314755
0.00315468
0.00316153
0.00316809
0.00317434
0.00318028
0.00318588
0.00319113
0.00319601
0.00320051
0.00320462
0.00320831
0.00321156
0.00321437
0.00321671
0.00321857
0.00321992
0.00322075
0.00322104
0.00322077
0.00321993
0.00321848
0.00321642
0.00321373
0.00321037
0.00320635
0.00320162
0.00319619
0.00319002
0.00318309
0.00317539
0.0031669
0.00315759
0.00314745
0.00313646
0.00312459
0.00311184
0.00309818
0.00308359
0.00306806
0.00305157
0.00303409
0.00301562
0.00299614
0.00297563
0.00295408
0.00293147
0.00290778
0.00288302
0.00285715
0.00283018
0.00280208
0.00277286
0.0027425
0.00271098
0.00267832
0.00264449
0.00260949
0.00257332
0.00253598
0.00249746
0.00245776
0.00241689
0.00237484
0.00233161
0.00228722
0.00224166
0.00219494
0.00214707
0.00209806
0.00204792
0.00199667
0.00194431
0.00189085
0.00183633
0.00178075
0.00172413
0.00166649
0.00160786
0.00154826
0.00148772
0.00142625
0.0013639
0.00130068
0.00123664
0.0011718
0.00110621
0.00103991
0.000972926
0.000905321
0.000837146
0.00076846
0.000699334
0.000629854
0.000560124
0.000490279
0.000420498
0.000351032
0.00028225
0.000214726
0.000149425
8.81268e-05
3.48754e-05
3.86167e-06
3.27199e-07
)
;

boundaryField
{
    top_wall
    {
        type            nutLowReWallFunction;
        value           uniform 0;
    }
    inlet
    {
        type            cyclic;
    }
    bot_wall
    {
        type            nutLowReWallFunction;
        value           uniform 0;
    }
    outlet
    {
        type            cyclic;
    }
    frontAndBack
    {
        type            empty;
    }
}


// ************************************************************************* //
