/*--------------------------------*- C++ -*----------------------------------*\
| =========                 |                                                 |
| \\      /  F ield         | OpenFOAM: The Open Source CFD Toolbox           |
|  \\    /   O peration     | Version:  2312                                  |
|   \\  /    A nd           | Website:  www.openfoam.com                      |
|    \\/     M anipulation  |                                                 |
\*---------------------------------------------------------------------------*/
FoamFile
{
    version     2.0;
    format      ascii;
    arch        "LSB;label=32;scalar=64";
    class       volVectorField;
    location    "9.91";
    object      U;
}
// * * * * * * * * * * * * * * * * * * * * * * * * * * * * * * * * * * * * * //

dimensions      [0 1 -1 0 0 0 0];

internalField   nonuniform List<vector> 
500
(
(0.0994413 -2.21306e-18 0)
(0.289564 -4.84173e-18 0)
(0.431769 -4.58388e-18 0)
(0.519883 -4.26889e-18 0)
(0.57786 -4.19505e-18 0)
(0.619851 -4.14924e-18 0)
(0.652367 -4.10442e-18 0)
(0.67873 -3.93933e-18 0)
(0.700821 -3.6543e-18 0)
(0.71979 -3.42709e-18 0)
(0.736387 -3.46336e-18 0)
(0.751128 -3.62845e-18 0)
(0.764377 -3.60338e-18 0)
(0.776405 -3.62632e-18 0)
(0.787415 -3.747e-18 0)
(0.797564 -3.83555e-18 0)
(0.806977 -3.87179e-18 0)
(0.815753 -3.84303e-18 0)
(0.823974 -3.80938e-18 0)
(0.831706 -3.77179e-18 0)
(0.839005 -3.73285e-18 0)
(0.845917 -3.69369e-18 0)
(0.852483 -3.65766e-18 0)
(0.858738 -3.62448e-18 0)
(0.864709 -3.59383e-18 0)
(0.870424 -3.56537e-18 0)
(0.875904 -3.53879e-18 0)
(0.881169 -3.51385e-18 0)
(0.886237 -3.49032e-18 0)
(0.891122 -3.46803e-18 0)
(0.89584 -3.44685e-18 0)
(0.900402 -3.42666e-18 0)
(0.90482 -3.40739e-18 0)
(0.909103 -3.38897e-18 0)
(0.913261 -3.37135e-18 0)
(0.917301 -3.35447e-18 0)
(0.921232 -3.33831e-18 0)
(0.925061 -3.32283e-18 0)
(0.928792 -3.30801e-18 0)
(0.932433 -3.29381e-18 0)
(0.935989 -3.28021e-18 0)
(0.939465 -3.26718e-18 0)
(0.942864 -3.25471e-18 0)
(0.946192 -3.24277e-18 0)
(0.949452 -3.23134e-18 0)
(0.952648 -3.2204e-18 0)
(0.955783 -3.20992e-18 0)
(0.95886 -3.19989e-18 0)
(0.961882 -3.19028e-18 0)
(0.964853 -3.18108e-18 0)
(0.967773 -3.17226e-18 0)
(0.970647 -3.16381e-18 0)
(0.973476 -3.15571e-18 0)
(0.976262 -3.14794e-18 0)
(0.979008 -3.14049e-18 0)
(0.981714 -3.13333e-18 0)
(0.984384 -3.12646e-18 0)
(0.987018 -3.11985e-18 0)
(0.989618 -3.1135e-18 0)
(0.992185 -3.10738e-18 0)
(0.994722 -3.1015e-18 0)
(0.997229 -3.09583e-18 0)
(0.999707 -3.09035e-18 0)
(1.00216 -3.08507e-18 0)
(1.00458 -3.07997e-18 0)
(1.00698 -3.07503e-18 0)
(1.00936 -3.07025e-18 0)
(1.01171 -3.06562e-18 0)
(1.01404 -3.06112e-18 0)
(1.01635 -3.05675e-18 0)
(1.01864 -3.0525e-18 0)
(1.02091 -3.04836e-18 0)
(1.02316 -3.04432e-18 0)
(1.02539 -3.04037e-18 0)
(1.0276 -3.03651e-18 0)
(1.0298 -3.03272e-18 0)
(1.03198 -3.02901e-18 0)
(1.03414 -3.02536e-18 0)
(1.03629 -3.02177e-18 0)
(1.03842 -3.01823e-18 0)
(1.04054 -3.01474e-18 0)
(1.04265 -3.01129e-18 0)
(1.04474 -3.00789e-18 0)
(1.04682 -3.00452e-18 0)
(1.04889 -3.0012e-18 0)
(1.05094 -2.9979e-18 0)
(1.05299 -2.99465e-18 0)
(1.05502 -2.99145e-18 0)
(1.05704 -2.98829e-18 0)
(1.05905 -2.98519e-18 0)
(1.06104 -2.98216e-18 0)
(1.06303 -2.97921e-18 0)
(1.06501 -2.97637e-18 0)
(1.06698 -2.97365e-18 0)
(1.06894 -2.97109e-18 0)
(1.07089 -2.96871e-18 0)
(1.07283 -2.96656e-18 0)
(1.07476 -2.96469e-18 0)
(1.07668 -2.96316e-18 0)
(1.07859 -2.96201e-18 0)
(1.0805 -2.96134e-18 0)
(1.08239 -2.96122e-18 0)
(1.08428 -2.96176e-18 0)
(1.08616 -2.96304e-18 0)
(1.08803 -2.9652e-18 0)
(1.0899 -2.96835e-18 0)
(1.09175 -2.97263e-18 0)
(1.0936 -2.9782e-18 0)
(1.09544 -2.98519e-18 0)
(1.09727 -2.99377e-18 0)
(1.0991 -3.00409e-18 0)
(1.10092 -3.01631e-18 0)
(1.10273 -3.02923e-18 0)
(1.10453 -3.04283e-18 0)
(1.10632 -3.05831e-18 0)
(1.10811 -3.07551e-18 0)
(1.10989 -3.09433e-18 0)
(1.11167 -3.11463e-18 0)
(1.11343 -3.13624e-18 0)
(1.11519 -3.15894e-18 0)
(1.11694 -3.18244e-18 0)
(1.11868 -3.20636e-18 0)
(1.12042 -3.23022e-18 0)
(1.12215 -3.25343e-18 0)
(1.12387 -3.27531e-18 0)
(1.12558 -3.2951e-18 0)
(1.12729 -3.31185e-18 0)
(1.12899 -3.32591e-18 0)
(1.13068 -3.3363e-18 0)
(1.13236 -3.34368e-18 0)
(1.13403 -3.34772e-18 0)
(1.1357 -3.3502e-18 0)
(1.13736 -3.35421e-18 0)
(1.13901 -3.3648e-18 0)
(1.14066 -3.38997e-18 0)
(1.14229 -3.44206e-18 0)
(1.14392 -3.5412e-18 0)
(1.14554 -3.69325e-18 0)
(1.14715 -3.89463e-18 0)
(1.14875 -4.07826e-18 0)
(1.15035 -3.80073e-18 0)
(1.15193 -3.5206e-18 0)
(1.15351 -3.70085e-18 0)
(1.15507 -3.89728e-18 0)
(1.15663 -4.04256e-18 0)
(1.15818 -4.13216e-18 0)
(1.15972 -4.17177e-18 0)
(1.16126 -4.1806e-18 0)
(1.16278 -4.17145e-18 0)
(1.16429 -4.15275e-18 0)
(1.1658 -4.12916e-18 0)
(1.16729 -4.10342e-18 0)
(1.16878 -4.0762e-18 0)
(1.17025 -4.04734e-18 0)
(1.17172 -4.01691e-18 0)
(1.17317 -3.98401e-18 0)
(1.17462 -3.94767e-18 0)
(1.17605 -3.90615e-18 0)
(1.17747 -3.85853e-18 0)
(1.17889 -3.80319e-18 0)
(1.18029 -3.73938e-18 0)
(1.18169 -3.66563e-18 0)
(1.18307 -3.58133e-18 0)
(1.18444 -3.4852e-18 0)
(1.1858 -3.3759e-18 0)
(1.18715 -3.25205e-18 0)
(1.18849 -3.11208e-18 0)
(1.18981 -2.9541e-18 0)
(1.19113 -2.77565e-18 0)
(1.19243 -2.56484e-18 0)
(1.19372 -2.44486e-18 0)
(1.195 -2.54947e-18 0)
(1.19627 -2.65864e-18 0)
(1.19753 -2.54944e-18 0)
(1.19877 -2.35355e-18 0)
(1.2 -2.19525e-18 0)
(1.20122 -2.06293e-18 0)
(1.20243 -1.95457e-18 0)
(1.20362 -1.86884e-18 0)
(1.2048 -1.80486e-18 0)
(1.20597 -1.76209e-18 0)
(1.20712 -1.74028e-18 0)
(1.20826 -1.73937e-18 0)
(1.20939 -1.75867e-18 0)
(1.2105 -1.79838e-18 0)
(1.21161 -1.8588e-18 0)
(1.21269 -1.94029e-18 0)
(1.21377 -2.04337e-18 0)
(1.21483 -2.16872e-18 0)
(1.21587 -2.31722e-18 0)
(1.2169 -2.49005e-18 0)
(1.21792 -2.68873e-18 0)
(1.21892 -2.91525e-18 0)
(1.21991 -2.90242e-18 0)
(1.22088 -2.8996e-18 0)
(1.22184 -3.15911e-18 0)
(1.22278 -3.41461e-18 0)
(1.22371 -3.67026e-18 0)
(1.22462 -3.93111e-18 0)
(1.22552 -4.20317e-18 0)
(1.2264 -4.49357e-18 0)
(1.22727 -4.80432e-18 0)
(1.22812 -5.22956e-18 0)
(1.22896 -5.0914e-18 0)
(1.22978 -4.97796e-18 0)
(1.23058 -5.48497e-18 0)
(1.23137 -5.88572e-18 0)
(1.23214 -6.22829e-18 0)
(1.23289 -6.51797e-18 0)
(1.23363 -6.7616e-18 0)
(1.23435 -6.96552e-18 0)
(1.23506 -7.13465e-18 0)
(1.23575 -7.27358e-18 0)
(1.23642 -7.3865e-18 0)
(1.23708 -7.47686e-18 0)
(1.23771 -7.54744e-18 0)
(1.23833 -7.60092e-18 0)
(1.23894 -7.63943e-18 0)
(1.23952 -7.66475e-18 0)
(1.24009 -7.6783e-18 0)
(1.24065 -7.68167e-18 0)
(1.24118 -7.67582e-18 0)
(1.2417 -7.66173e-18 0)
(1.24219 -7.64048e-18 0)
(1.24268 -7.61285e-18 0)
(1.24314 -7.57948e-18 0)
(1.24358 -7.54098e-18 0)
(1.24401 -7.49788e-18 0)
(1.24442 -7.45089e-18 0)
(1.24481 -7.40041e-18 0)
(1.24518 -7.3468e-18 0)
(1.24554 -7.29059e-18 0)
(1.24587 -7.23204e-18 0)
(1.24619 -7.17157e-18 0)
(1.24649 -7.10959e-18 0)
(1.24677 -7.0462e-18 0)
(1.24703 -6.98172e-18 0)
(1.24728 -6.9163e-18 0)
(1.2475 -6.85017e-18 0)
(1.24771 -6.78355e-18 0)
(1.2479 -6.71649e-18 0)
(1.24807 -6.64915e-18 0)
(1.24822 -6.58165e-18 0)
(1.24835 -6.51409e-18 0)
(1.24846 -6.44651e-18 0)
(1.24856 -6.37898e-18 0)
(1.24863 -6.31159e-18 0)
(1.24869 -6.24434e-18 0)
(1.24873 -6.17729e-18 0)
(1.24875 -6.11046e-18 0)
(1.24875 -6.04388e-18 0)
(1.24873 -5.97759e-18 0)
(1.24869 -5.91159e-18 0)
(1.24863 -5.84589e-18 0)
(1.24856 -5.78051e-18 0)
(1.24846 -5.71544e-18 0)
(1.24835 -5.65071e-18 0)
(1.24822 -5.58631e-18 0)
(1.24807 -5.52225e-18 0)
(1.2479 -5.45853e-18 0)
(1.24771 -5.39515e-18 0)
(1.2475 -5.33211e-18 0)
(1.24728 -5.2694e-18 0)
(1.24703 -5.20703e-18 0)
(1.24677 -5.14498e-18 0)
(1.24649 -5.08324e-18 0)
(1.24619 -5.02193e-18 0)
(1.24587 -4.96102e-18 0)
(1.24554 -4.90053e-18 0)
(1.24518 -4.84044e-18 0)
(1.24481 -4.78077e-18 0)
(1.24442 -4.7215e-18 0)
(1.24401 -4.66264e-18 0)
(1.24358 -4.60418e-18 0)
(1.24314 -4.54612e-18 0)
(1.24268 -4.48847e-18 0)
(1.24219 -4.4312e-18 0)
(1.2417 -4.37432e-18 0)
(1.24118 -4.31783e-18 0)
(1.24065 -4.26172e-18 0)
(1.24009 -4.20598e-18 0)
(1.23952 -4.15061e-18 0)
(1.23894 -4.09561e-18 0)
(1.23833 -4.04097e-18 0)
(1.23771 -3.98668e-18 0)
(1.23708 -3.93275e-18 0)
(1.23642 -3.87915e-18 0)
(1.23575 -3.82591e-18 0)
(1.23506 -3.77299e-18 0)
(1.23435 -3.72042e-18 0)
(1.23363 -3.66817e-18 0)
(1.23289 -3.61626e-18 0)
(1.23214 -3.56467e-18 0)
(1.23137 -3.51341e-18 0)
(1.23058 -3.46248e-18 0)
(1.22978 -3.41187e-18 0)
(1.22896 -3.36159e-18 0)
(1.22812 -3.31163e-18 0)
(1.22727 -3.26201e-18 0)
(1.2264 -3.21271e-18 0)
(1.22552 -3.16374e-18 0)
(1.22462 -3.11512e-18 0)
(1.22371 -3.06682e-18 0)
(1.22278 -3.01888e-18 0)
(1.22184 -2.97127e-18 0)
(1.22088 -2.92402e-18 0)
(1.21991 -2.87712e-18 0)
(1.21892 -2.83057e-18 0)
(1.21792 -2.7844e-18 0)
(1.2169 -2.73859e-18 0)
(1.21587 -2.69315e-18 0)
(1.21482 -2.64809e-18 0)
(1.21377 -2.60341e-18 0)
(1.21269 -2.55913e-18 0)
(1.21161 -2.51523e-18 0)
(1.2105 -2.47174e-18 0)
(1.20939 -2.42865e-18 0)
(1.20826 -2.38597e-18 0)
(1.20712 -2.34371e-18 0)
(1.20597 -2.30187e-18 0)
(1.2048 -2.26045e-18 0)
(1.20362 -2.21946e-18 0)
(1.20242 -2.1789e-18 0)
(1.20122 -2.13878e-18 0)
(1.2 -2.0991e-18 0)
(1.19877 -2.05987e-18 0)
(1.19753 -2.02109e-18 0)
(1.19627 -1.98276e-18 0)
(1.195 -1.94488e-18 0)
(1.19372 -1.90747e-18 0)
(1.19243 -1.87051e-18 0)
(1.19113 -1.83403e-18 0)
(1.18981 -1.798e-18 0)
(1.18849 -1.76245e-18 0)
(1.18715 -1.72736e-18 0)
(1.1858 -1.69275e-18 0)
(1.18444 -1.65861e-18 0)
(1.18307 -1.62494e-18 0)
(1.18168 -1.59175e-18 0)
(1.18029 -1.55903e-18 0)
(1.17889 -1.52679e-18 0)
(1.17747 -1.49502e-18 0)
(1.17605 -1.46373e-18 0)
(1.17462 -1.43291e-18 0)
(1.17317 -1.40256e-18 0)
(1.17172 -1.37269e-18 0)
(1.17025 -1.34328e-18 0)
(1.16878 -1.31435e-18 0)
(1.16729 -1.28588e-18 0)
(1.1658 -1.25788e-18 0)
(1.16429 -1.23034e-18 0)
(1.16278 -1.20327e-18 0)
(1.16126 -1.17665e-18 0)
(1.15972 -1.15049e-18 0)
(1.15818 -1.12479e-18 0)
(1.15663 -1.09953e-18 0)
(1.15507 -1.07472e-18 0)
(1.15351 -1.05036e-18 0)
(1.15193 -1.02644e-18 0)
(1.15034 -1.00296e-18 0)
(1.14875 -9.79907e-19 0)
(1.14715 -9.57287e-19 0)
(1.14554 -9.35094e-19 0)
(1.14392 -9.13323e-19 0)
(1.14229 -8.91969e-19 0)
(1.14066 -8.7103e-19 0)
(1.13901 -8.505e-19 0)
(1.13736 -8.30376e-19 0)
(1.1357 -8.10652e-19 0)
(1.13403 -7.91324e-19 0)
(1.13236 -7.72388e-19 0)
(1.13068 -7.53838e-19 0)
(1.12899 -7.35671e-19 0)
(1.12729 -7.17881e-19 0)
(1.12558 -7.00463e-19 0)
(1.12387 -6.83412e-19 0)
(1.12215 -6.66724e-19 0)
(1.12042 -6.50393e-19 0)
(1.11868 -6.34415e-19 0)
(1.11694 -6.18785e-19 0)
(1.11519 -6.03496e-19 0)
(1.11343 -5.88545e-19 0)
(1.11166 -5.73926e-19 0)
(1.10989 -5.59635e-19 0)
(1.10811 -5.45665e-19 0)
(1.10632 -5.32012e-19 0)
(1.10453 -5.18671e-19 0)
(1.10273 -5.05636e-19 0)
(1.10092 -4.92903e-19 0)
(1.0991 -4.80466e-19 0)
(1.09727 -4.68321e-19 0)
(1.09544 -4.56462e-19 0)
(1.0936 -4.44884e-19 0)
(1.09175 -4.33583e-19 0)
(1.08989 -4.22553e-19 0)
(1.08803 -4.11789e-19 0)
(1.08616 -4.01286e-19 0)
(1.08428 -3.9104e-19 0)
(1.08239 -3.81046e-19 0)
(1.0805 -3.71298e-19 0)
(1.07859 -3.61793e-19 0)
(1.07668 -3.52524e-19 0)
(1.07476 -3.43488e-19 0)
(1.07282 -3.34681e-19 0)
(1.07089 -3.26096e-19 0)
(1.06894 -3.1773e-19 0)
(1.06698 -3.09578e-19 0)
(1.06501 -3.01636e-19 0)
(1.06303 -2.939e-19 0)
(1.06104 -2.86364e-19 0)
(1.05905 -2.79025e-19 0)
(1.05704 -2.71879e-19 0)
(1.05502 -2.6492e-19 0)
(1.05299 -2.58146e-19 0)
(1.05094 -2.51552e-19 0)
(1.04889 -2.45134e-19 0)
(1.04682 -2.38887e-19 0)
(1.04474 -2.32809e-19 0)
(1.04265 -2.26896e-19 0)
(1.04054 -2.21142e-19 0)
(1.03842 -2.15546e-19 0)
(1.03629 -2.10102e-19 0)
(1.03414 -2.04808e-19 0)
(1.03198 -1.9966e-19 0)
(1.0298 -1.94654e-19 0)
(1.0276 -1.89788e-19 0)
(1.02539 -1.85057e-19 0)
(1.02316 -1.80459e-19 0)
(1.02091 -1.75989e-19 0)
(1.01864 -1.71646e-19 0)
(1.01635 -1.67426e-19 0)
(1.01404 -1.63325e-19 0)
(1.01171 -1.59341e-19 0)
(1.00936 -1.55471e-19 0)
(1.00698 -1.51712e-19 0)
(1.00458 -1.48061e-19 0)
(1.00216 -1.44516e-19 0)
(0.999707 -1.41073e-19 0)
(0.997228 -1.3773e-19 0)
(0.994722 -1.34485e-19 0)
(0.992185 -1.31334e-19 0)
(0.989617 -1.28276e-19 0)
(0.987017 -1.25307e-19 0)
(0.984384 -1.22426e-19 0)
(0.981714 -1.1963e-19 0)
(0.979008 -1.16918e-19 0)
(0.976262 -1.14285e-19 0)
(0.973476 -1.11731e-19 0)
(0.970647 -1.09254e-19 0)
(0.967773 -1.0685e-19 0)
(0.964852 -1.04519e-19 0)
(0.961882 -1.02257e-19 0)
(0.95886 -1.00064e-19 0)
(0.955782 -9.79361e-20 0)
(0.952647 -9.58729e-20 0)
(0.949452 -9.38719e-20 0)
(0.946192 -9.19313e-20 0)
(0.942864 -9.00493e-20 0)
(0.939464 -8.8224e-20 0)
(0.935989 -8.64538e-20 0)
(0.932433 -8.47368e-20 0)
(0.928792 -8.30713e-20 0)
(0.92506 -8.14556e-20 0)
(0.921232 -7.9888e-20 0)
(0.917301 -7.83668e-20 0)
(0.913261 -7.68902e-20 0)
(0.909103 -7.54566e-20 0)
(0.90482 -7.40641e-20 0)
(0.900402 -7.27112e-20 0)
(0.89584 -7.1396e-20 0)
(0.891122 -7.01167e-20 0)
(0.886236 -6.88715e-20 0)
(0.881169 -6.76583e-20 0)
(0.875903 -6.64754e-20 0)
(0.870423 -6.53204e-20 0)
(0.864709 -6.41913e-20 0)
(0.858737 -6.30856e-20 0)
(0.852483 -6.20009e-20 0)
(0.845917 -6.09342e-20 0)
(0.839005 -5.98826e-20 0)
(0.831706 -5.88426e-20 0)
(0.823974 -5.78103e-20 0)
(0.815753 -5.67814e-20 0)
(0.806977 -5.57507e-20 0)
(0.797564 -5.47121e-20 0)
(0.787415 -5.36584e-20 0)
(0.776405 -5.25807e-20 0)
(0.764377 -5.14679e-20 0)
(0.751128 -5.0306e-20 0)
(0.736387 -4.90766e-20 0)
(0.71979 -4.7755e-20 0)
(0.700821 -4.63068e-20 0)
(0.67873 -4.46822e-20 0)
(0.652367 -4.28051e-20 0)
(0.619851 -4.05521e-20 0)
(0.57786 -3.77058e-20 0)
(0.519883 -3.38419e-20 0)
(0.431769 -2.80408e-20 0)
(0.289564 -1.87578e-20 0)
(0.0994413 -6.42125e-21 0)
)
;

boundaryField
{
    top_wall
    {
        type            noSlip;
    }
    inlet
    {
        type            cyclic;
    }
    bot_wall
    {
        type            noSlip;
    }
    outlet
    {
        type            cyclic;
    }
    frontAndBack
    {
        type            empty;
    }
}


// ************************************************************************* //
