/*--------------------------------*- C++ -*----------------------------------*\
| =========                 |                                                 |
| \\      /  F ield         | OpenFOAM: The Open Source CFD Toolbox           |
|  \\    /   O peration     | Version:  2312                                  |
|   \\  /    A nd           | Website:  www.openfoam.com                      |
|    \\/     M anipulation  |                                                 |
\*---------------------------------------------------------------------------*/
FoamFile
{
    version     2.0;
    format      ascii;
    arch        "LSB;label=32;scalar=64";
    class       volScalarField;
    location    "13.675";
    object      nut;
}
// * * * * * * * * * * * * * * * * * * * * * * * * * * * * * * * * * * * * * //

dimensions      [0 2 -1 0 0 0 0];

internalField   nonuniform List<scalar> 
1000
(
1.86193e-08
1.25555e-07
2.00349e-06
1.07219e-05
2.86081e-05
5.28761e-05
8.08515e-05
0.000111073
0.000142746
0.000175401
0.000208736
0.000242545
0.000276685
0.000311046
0.000345548
0.000380128
0.000414735
0.000449329
0.000483877
0.00051835
0.000552726
0.000586985
0.00062111
0.000655086
0.0006889
0.000722542
0.000756002
0.00078927
0.000822339
0.000855202
0.000887853
0.000920285
0.000952494
0.000984475
0.00101622
0.00104774
0.00107901
0.00111004
0.00114082
0.00117136
0.00120164
0.00123167
0.00126145
0.00129096
0.00132022
0.00134921
0.00137795
0.00140641
0.00143461
0.00146255
0.00149021
0.00151761
0.00154473
0.00157159
0.00159817
0.00162447
0.00165051
0.00167627
0.00170175
0.00172696
0.00175189
0.00177655
0.00180093
0.00182503
0.00184885
0.0018724
0.00189567
0.00191865
0.00194136
0.0019638
0.00198595
0.00200782
0.00202942
0.00205074
0.00207177
0.00209253
0.00211302
0.00213322
0.00215314
0.00217279
0.00219216
0.00221125
0.00223007
0.00224861
0.00226687
0.00228486
0.00230257
0.00232001
0.00233717
0.00235406
0.00237067
0.00238702
0.00240309
0.00241888
0.00243441
0.00244967
0.00246466
0.00247938
0.00249383
0.00250801
0.00252193
0.00253558
0.00254897
0.00256209
0.00257496
0.00258756
0.00259989
0.00261197
0.00262379
0.00263535
0.00264666
0.00265771
0.00266851
0.00267905
0.00268934
0.00269938
0.00270917
0.00271871
0.002728
0.00273705
0.00274586
0.00275442
0.00276274
0.00277082
0.00277866
0.00278626
0.00279363
0.00280077
0.00280767
0.00281434
0.00282078
0.00282699
0.00283298
0.00283875
0.00284429
0.00284961
0.00285471
0.00285959
0.00286426
0.00286871
0.00287295
0.00287698
0.0028808
0.00288442
0.00288783
0.00289104
0.00289405
0.00289686
0.00289947
0.00290189
0.00290412
0.00290615
0.002908
0.00290966
0.00291114
0.00291243
0.00291355
0.00291448
0.00291524
0.00291583
0.00291624
0.00291649
0.00291657
0.00291648
0.00291624
0.00291583
0.00291526
0.00291454
0.00291366
0.00291263
0.00291146
0.00291014
0.00290867
0.00290706
0.00290531
0.00290343
0.0029014
0.00289925
0.00289697
0.00289455
0.00289202
0.00288936
0.00288657
0.00288367
0.00288066
0.00287753
0.00287428
0.00287093
0.00286747
0.00286391
0.00286024
0.00285648
0.00285262
0.00284866
0.00284461
0.00284047
0.00283624
0.00283192
0.00282752
0.00282304
0.00281848
0.00281385
0.00280913
0.00280435
0.0027995
0.00279457
0.00278959
0.00278454
0.00277942
0.00277425
0.00276903
0.00276374
0.00275841
0.00275302
0.00274759
0.0027421
0.00273658
0.00273101
0.0027254
0.00271976
0.00271408
0.00270836
0.00270261
0.00269683
0.00269102
0.00268519
0.00267933
0.00267345
0.00266754
0.00266162
0.00265568
0.00264972
0.00264375
0.00263777
0.00263178
0.00262578
0.00261977
0.00261375
0.00260774
0.00260171
0.00259569
0.00258967
0.00258365
0.00257764
0.00257163
0.00256562
0.00255962
0.00255364
0.00254766
0.00254169
0.00253574
0.0025298
0.00252388
0.00251798
0.00251209
0.00250622
0.00250037
0.00249454
0.00248874
0.00248296
0.0024772
0.00247147
0.00246576
0.00246009
0.00245444
0.00244881
0.00244322
0.00243766
0.00243213
0.00242664
0.00242117
0.00241574
0.00241035
0.00240499
0.00239966
0.00239438
0.00238913
0.00238391
0.00237874
0.0023736
0.0023685
0.00236345
0.00235843
0.00235345
0.00234851
0.00234362
0.00233877
0.00233395
0.00232919
0.00232446
0.00231978
0.00231514
0.00231054
0.00230599
0.00230148
0.00229701
0.00229259
0.00228821
0.00228388
0.00227959
0.00227535
0.00227115
0.00226699
0.00226289
0.00225882
0.0022548
0.00225083
0.00224689
0.00224301
0.00223917
0.00223537
0.00223162
0.00222791
0.00222425
0.00222063
0.00221705
0.00221352
0.00221003
0.00220659
0.00220319
0.00219983
0.00219651
0.00219324
0.00219001
0.00218683
0.00218368
0.00218058
0.00217752
0.0021745
0.00217152
0.00216858
0.00216568
0.00216282
0.00216
0.00215722
0.00215449
0.00215179
0.00214912
0.0021465
0.00214392
0.00214137
0.00213886
0.00213639
0.00213395
0.00213155
0.00212919
0.00212686
0.00212457
0.00212231
0.00212009
0.0021179
0.00211574
0.00211362
0.00211153
0.00210948
0.00210746
0.00210547
0.00210351
0.00210158
0.00209968
0.00209782
0.00209598
0.00209418
0.0020924
0.00209066
0.00208894
0.00208725
0.00208559
0.00208396
0.00208235
0.00208077
0.00207922
0.0020777
0.0020762
0.00207472
0.00207328
0.00207185
0.00207046
0.00206908
0.00206773
0.00206641
0.0020651
0.00206382
0.00206257
0.00206133
0.00206012
0.00205893
0.00205776
0.00205661
0.00205549
0.00205438
0.0020533
0.00205223
0.00205118
0.00205016
0.00204915
0.00204816
0.00204719
0.00204624
0.0020453
0.00204438
0.00204348
0.0020426
0.00204174
0.00204089
0.00204006
0.00203924
0.00203844
0.00203765
0.00203688
0.00203613
0.00203539
0.00203467
0.00203396
0.00203326
0.00203258
0.00203191
0.00203125
0.00203061
0.00202998
0.00202937
0.00202877
0.00202818
0.0020276
0.00202703
0.00202648
0.00202594
0.00202541
0.00202489
0.00202438
0.00202388
0.0020234
0.00202292
0.00202245
0.002022
0.00202156
0.00202112
0.0020207
0.00202028
0.00201988
0.00201948
0.00201909
0.00201872
0.00201835
0.00201799
0.00201764
0.00201729
0.00201696
0.00201664
0.00201632
0.00201601
0.00201571
0.00201541
0.00201513
0.00201485
0.00201458
0.00201432
0.00201406
0.00201381
0.00201357
0.00201334
0.00201311
0.00201289
0.00201268
0.00201247
0.00201227
0.00201208
0.00201189
0.00201171
0.00201154
0.00201137
0.00201121
0.00201105
0.0020109
0.00201076
0.00201062
0.00201049
0.00201036
0.00201024
0.00201013
0.00201002
0.00200992
0.00200982
0.00200973
0.00200964
0.00200956
0.00200949
0.00200942
0.00200936
0.0020093
0.00200924
0.0020092
0.00200915
0.00200912
0.00200909
0.00200906
0.00200904
0.00200902
0.00200901
0.00200901
0.00200901
0.00200901
0.00200902
0.00200904
0.00200906
0.00200909
0.00200912
0.00200915
0.0020092
0.00200924
0.0020093
0.00200936
0.00200942
0.00200949
0.00200956
0.00200964
0.00200973
0.00200982
0.00200992
0.00201002
0.00201013
0.00201024
0.00201036
0.00201049
0.00201062
0.00201076
0.0020109
0.00201105
0.00201121
0.00201137
0.00201154
0.00201171
0.00201189
0.00201208
0.00201227
0.00201247
0.00201268
0.00201289
0.00201311
0.00201334
0.00201357
0.00201381
0.00201406
0.00201432
0.00201458
0.00201485
0.00201513
0.00201541
0.00201571
0.00201601
0.00201632
0.00201663
0.00201696
0.00201729
0.00201764
0.00201799
0.00201835
0.00201872
0.00201909
0.00201948
0.00201988
0.00202028
0.0020207
0.00202112
0.00202156
0.002022
0.00202245
0.00202292
0.0020234
0.00202388
0.00202438
0.00202489
0.00202541
0.00202594
0.00202648
0.00202703
0.0020276
0.00202818
0.00202877
0.00202937
0.00202998
0.00203061
0.00203125
0.00203191
0.00203258
0.00203326
0.00203396
0.00203467
0.00203539
0.00203613
0.00203689
0.00203765
0.00203844
0.00203924
0.00204006
0.00204089
0.00204174
0.0020426
0.00204349
0.00204438
0.0020453
0.00204624
0.00204719
0.00204816
0.00204915
0.00205016
0.00205118
0.00205223
0.0020533
0.00205438
0.00205549
0.00205662
0.00205776
0.00205893
0.00206012
0.00206134
0.00206257
0.00206383
0.00206511
0.00206641
0.00206773
0.00206908
0.00207046
0.00207186
0.00207328
0.00207473
0.0020762
0.0020777
0.00207922
0.00208077
0.00208235
0.00208396
0.00208559
0.00208725
0.00208894
0.00209066
0.0020924
0.00209418
0.00209599
0.00209782
0.00209969
0.00210158
0.00210351
0.00210547
0.00210746
0.00210948
0.00211154
0.00211362
0.00211574
0.0021179
0.00212009
0.00212231
0.00212457
0.00212686
0.00212919
0.00213155
0.00213395
0.00213639
0.00213886
0.00214137
0.00214392
0.0021465
0.00214913
0.00215179
0.00215449
0.00215723
0.00216
0.00216282
0.00216568
0.00216858
0.00217152
0.0021745
0.00217752
0.00218058
0.00218368
0.00218683
0.00219001
0.00219324
0.00219652
0.00219983
0.00220319
0.00220659
0.00221003
0.00221352
0.00221705
0.00222063
0.00222425
0.00222791
0.00223162
0.00223537
0.00223917
0.00224301
0.00224689
0.00225082
0.0022548
0.00225882
0.00226288
0.00226699
0.00227115
0.00227535
0.00227959
0.00228388
0.00228821
0.00229259
0.00229701
0.00230147
0.00230598
0.00231054
0.00231513
0.00231977
0.00232446
0.00232918
0.00233395
0.00233876
0.00234362
0.00234851
0.00235345
0.00235842
0.00236344
0.0023685
0.0023736
0.00237873
0.00238391
0.00238912
0.00239437
0.00239966
0.00240499
0.00241035
0.00241574
0.00242117
0.00242663
0.00243213
0.00243766
0.00244322
0.00244881
0.00245443
0.00246008
0.00246576
0.00247147
0.0024772
0.00248295
0.00248874
0.00249454
0.00250037
0.00250622
0.00251208
0.00251797
0.00252388
0.0025298
0.00253574
0.00254169
0.00254766
0.00255363
0.00255962
0.00256562
0.00257162
0.00257763
0.00258365
0.00258967
0.00259569
0.00260171
0.00260773
0.00261375
0.00261976
0.00262577
0.00263177
0.00263777
0.00264375
0.00264972
0.00265567
0.00266161
0.00266754
0.00267344
0.00267932
0.00268518
0.00269102
0.00269682
0.0027026
0.00270835
0.00271407
0.00271975
0.0027254
0.00273101
0.00273657
0.0027421
0.00274758
0.00275302
0.0027584
0.00276374
0.00276902
0.00277425
0.00277942
0.00278453
0.00278958
0.00279457
0.00279949
0.00280434
0.00280913
0.00281384
0.00281848
0.00282304
0.00282752
0.00283192
0.00283623
0.00284046
0.0028446
0.00284865
0.00285261
0.00285647
0.00286024
0.0028639
0.00286747
0.00287093
0.00287428
0.00287752
0.00288065
0.00288367
0.00288657
0.00288935
0.00289201
0.00289455
0.00289696
0.00289925
0.0029014
0.00290342
0.00290531
0.00290705
0.00290866
0.00291013
0.00291145
0.00291263
0.00291366
0.00291453
0.00291525
0.00291582
0.00291623
0.00291648
0.00291656
0.00291648
0.00291624
0.00291582
0.00291524
0.00291448
0.00291354
0.00291243
0.00291113
0.00290966
0.00290799
0.00290615
0.00290411
0.00290189
0.00289947
0.00289685
0.00289404
0.00289104
0.00288783
0.00288442
0.0028808
0.00287698
0.00287295
0.0028687
0.00286425
0.00285958
0.0028547
0.0028496
0.00284428
0.00283874
0.00283298
0.00282699
0.00282078
0.00281433
0.00280766
0.00280076
0.00279363
0.00278626
0.00277865
0.00277081
0.00276273
0.00275441
0.00274585
0.00273705
0.002728
0.0027187
0.00270916
0.00269937
0.00268933
0.00267904
0.0026685
0.00265771
0.00264666
0.00263535
0.00262379
0.00261197
0.00259989
0.00258755
0.00257495
0.00256209
0.00254897
0.00253558
0.00252193
0.00250801
0.00249383
0.00247937
0.00246466
0.00244967
0.00243441
0.00241888
0.00240308
0.00238701
0.00237067
0.00235406
0.00233717
0.00232
0.00230257
0.00228486
0.00226687
0.00224861
0.00223007
0.00221125
0.00219216
0.00217279
0.00215314
0.00213322
0.00211301
0.00209253
0.00207177
0.00205073
0.00202942
0.00200782
0.00198595
0.0019638
0.00194136
0.00191865
0.00189566
0.0018724
0.00184885
0.00182503
0.00180093
0.00177655
0.00175189
0.00172696
0.00170175
0.00167627
0.00165051
0.00162447
0.00159817
0.00157159
0.00154473
0.00151761
0.00149021
0.00146255
0.00143461
0.00140641
0.00137794
0.00134921
0.00132022
0.00129096
0.00126145
0.00123167
0.00120164
0.00117136
0.00114082
0.00111004
0.00107901
0.00104774
0.00101622
0.000984475
0.000952494
0.000920285
0.000887852
0.000855202
0.000822339
0.00078927
0.000756002
0.000722542
0.0006889
0.000655086
0.00062111
0.000586985
0.000552726
0.00051835
0.000483877
0.000449329
0.000414735
0.000380128
0.000345548
0.000311046
0.000276684
0.000242545
0.000208736
0.000175401
0.000142746
0.000111073
8.08515e-05
5.28761e-05
2.86081e-05
1.07219e-05
2.00349e-06
1.25555e-07
1.86193e-08
)
;

boundaryField
{
    top_wall
    {
        type            nutLowReWallFunction;
        value           uniform 0;
    }
    inlet
    {
        type            cyclic;
    }
    bot_wall
    {
        type            nutLowReWallFunction;
        value           uniform 0;
    }
    outlet
    {
        type            cyclic;
    }
    frontAndBack
    {
        type            empty;
    }
}


// ************************************************************************* //
