/*--------------------------------*- C++ -*----------------------------------*\
| =========                 |                                                 |
| \\      /  F ield         | OpenFOAM: The Open Source CFD Toolbox           |
|  \\    /   O peration     | Version:  2312                                  |
|   \\  /    A nd           | Website:  www.openfoam.com                      |
|    \\/     M anipulation  |                                                 |
\*---------------------------------------------------------------------------*/
FoamFile
{
    version     2.0;
    format      ascii;
    arch        "LSB;label=32;scalar=64";
    class       volVectorField;
    location    "13.675";
    object      U;
}
// * * * * * * * * * * * * * * * * * * * * * * * * * * * * * * * * * * * * * //

dimensions      [0 1 -1 0 0 0 0];

internalField   nonuniform List<vector> 
1000
(
(0.0494125 -1.61384e-18 0)
(0.147901 -3.06297e-18 0)
(0.244284 -3.10028e-18 0)
(0.331433 -3.02071e-18 0)
(0.4018 -3.012e-18 0)
(0.455715 -3.02807e-18 0)
(0.497494 -3.01185e-18 0)
(0.530877 -2.91576e-18 0)
(0.558364 -2.72373e-18 0)
(0.581575 -2.647e-18 0)
(0.601581 -2.63716e-18 0)
(0.619115 -2.68785e-18 0)
(0.634692 -2.75378e-18 0)
(0.648688 -2.81618e-18 0)
(0.661383 -3.02341e-18 0)
(0.672992 -3.16887e-18 0)
(0.68368 -3.1446e-18 0)
(0.69358 -3.08619e-18 0)
(0.702798 -3.03578e-18 0)
(0.71142 -2.99042e-18 0)
(0.719517 -2.94924e-18 0)
(0.727149 -2.91308e-18 0)
(0.734366 -2.88106e-18 0)
(0.741211 -2.85244e-18 0)
(0.74772 -2.82661e-18 0)
(0.753924 -2.80309e-18 0)
(0.759852 -2.78146e-18 0)
(0.765525 -2.76141e-18 0)
(0.770967 -2.74265e-18 0)
(0.776195 -2.72497e-18 0)
(0.781225 -2.70821e-18 0)
(0.786072 -2.69221e-18 0)
(0.790749 -2.67687e-18 0)
(0.795269 -2.6621e-18 0)
(0.79964 -2.64782e-18 0)
(0.803874 -2.63399e-18 0)
(0.807979 -2.62055e-18 0)
(0.811962 -2.60749e-18 0)
(0.815831 -2.59477e-18 0)
(0.819592 -2.58238e-18 0)
(0.823252 -2.5703e-18 0)
(0.826816 -2.55852e-18 0)
(0.830289 -2.54705e-18 0)
(0.833676 -2.53586e-18 0)
(0.836981 -2.52497e-18 0)
(0.840208 -2.51436e-18 0)
(0.843362 -2.50404e-18 0)
(0.846445 -2.494e-18 0)
(0.84946 -2.48424e-18 0)
(0.852412 -2.47475e-18 0)
(0.855302 -2.46554e-18 0)
(0.858133 -2.4566e-18 0)
(0.860908 -2.44793e-18 0)
(0.86363 -2.43952e-18 0)
(0.8663 -2.43136e-18 0)
(0.86892 -2.42346e-18 0)
(0.871492 -2.4158e-18 0)
(0.874019 -2.40838e-18 0)
(0.876502 -2.40118e-18 0)
(0.878942 -2.39422e-18 0)
(0.881341 -2.38746e-18 0)
(0.883701 -2.38092e-18 0)
(0.886023 -2.37458e-18 0)
(0.888309 -2.36843e-18 0)
(0.890558 -2.36246e-18 0)
(0.892774 -2.35668e-18 0)
(0.894957 -2.35106e-18 0)
(0.897107 -2.3456e-18 0)
(0.899227 -2.3403e-18 0)
(0.901316 -2.33514e-18 0)
(0.903377 -2.33013e-18 0)
(0.905409 -2.32524e-18 0)
(0.907414 -2.32048e-18 0)
(0.909392 -2.31585e-18 0)
(0.911345 -2.31132e-18 0)
(0.913273 -2.3069e-18 0)
(0.915176 -2.30259e-18 0)
(0.917056 -2.29837e-18 0)
(0.918913 -2.29424e-18 0)
(0.920748 -2.2902e-18 0)
(0.922561 -2.28624e-18 0)
(0.924353 -2.28236e-18 0)
(0.926125 -2.27856e-18 0)
(0.927876 -2.27483e-18 0)
(0.929608 -2.27116e-18 0)
(0.931321 -2.26756e-18 0)
(0.933016 -2.26402e-18 0)
(0.934692 -2.26054e-18 0)
(0.936351 -2.25711e-18 0)
(0.937993 -2.25373e-18 0)
(0.939618 -2.25039e-18 0)
(0.941227 -2.2471e-18 0)
(0.94282 -2.24385e-18 0)
(0.944397 -2.24062e-18 0)
(0.945959 -2.23742e-18 0)
(0.947506 -2.23422e-18 0)
(0.949039 -2.23103e-18 0)
(0.950558 -2.22783e-18 0)
(0.952062 -2.2246e-18 0)
(0.953554 -2.22133e-18 0)
(0.955032 -2.21799e-18 0)
(0.956496 -2.21455e-18 0)
(0.957949 -2.21099e-18 0)
(0.959389 -2.20726e-18 0)
(0.960816 -2.20333e-18 0)
(0.962232 -2.19914e-18 0)
(0.963636 -2.19462e-18 0)
(0.965029 -2.1897e-18 0)
(0.96641 -2.18431e-18 0)
(0.967781 -2.17832e-18 0)
(0.969141 -2.17163e-18 0)
(0.97049 -2.16448e-18 0)
(0.971829 -2.15675e-18 0)
(0.973158 -2.14832e-18 0)
(0.974477 -2.13906e-18 0)
(0.975786 -2.12882e-18 0)
(0.977086 -2.11742e-18 0)
(0.978376 -2.10467e-18 0)
(0.979657 -2.09034e-18 0)
(0.98093 -2.0742e-18 0)
(0.982193 -2.05633e-18 0)
(0.983447 -2.03647e-18 0)
(0.984693 -2.01431e-18 0)
(0.985931 -1.98953e-18 0)
(0.987161 -1.96179e-18 0)
(0.988382 -1.93108e-18 0)
(0.989595 -1.89701e-18 0)
(0.990801 -1.85915e-18 0)
(0.991999 -1.81706e-18 0)
(0.993189 -1.7702e-18 0)
(0.994373 -1.71831e-18 0)
(0.995548 -1.66066e-18 0)
(0.996717 -1.59635e-18 0)
(0.997878 -1.52427e-18 0)
(0.999033 -1.44331e-18 0)
(1.00018 -1.352e-18 0)
(1.00132 -1.248e-18 0)
(1.00246 -1.26365e-18 0)
(1.00358 -1.39661e-18 0)
(1.00471 -1.48895e-18 0)
(1.00582 -1.46803e-18 0)
(1.00693 -1.43893e-18 0)
(1.00803 -1.50582e-18 0)
(1.00913 -1.60686e-18 0)
(1.01022 -1.7308e-18 0)
(1.01131 -1.7392e-18 0)
(1.01239 -1.62925e-18 0)
(1.01346 -1.53383e-18 0)
(1.01453 -1.45088e-18 0)
(1.01559 -1.37905e-18 0)
(1.01665 -1.3172e-18 0)
(1.0177 -1.26406e-18 0)
(1.01875 -1.21887e-18 0)
(1.01979 -1.18065e-18 0)
(1.02083 -1.14885e-18 0)
(1.02186 -1.12268e-18 0)
(1.02289 -1.10175e-18 0)
(1.02391 -1.08541e-18 0)
(1.02492 -1.07342e-18 0)
(1.02594 -1.06527e-18 0)
(1.02694 -1.06048e-18 0)
(1.02795 -1.05865e-18 0)
(1.02894 -1.05972e-18 0)
(1.02994 -1.06331e-18 0)
(1.03093 -1.06907e-18 0)
(1.03191 -1.07666e-18 0)
(1.03289 -1.08613e-18 0)
(1.03387 -1.09723e-18 0)
(1.03484 -1.10901e-18 0)
(1.03581 -1.12938e-18 0)
(1.03677 -1.21621e-18 0)
(1.03773 -1.40669e-18 0)
(1.03869 -1.58644e-18 0)
(1.03964 -1.65278e-18 0)
(1.04058 -1.6664e-18 0)
(1.04153 -1.68445e-18 0)
(1.04247 -1.70243e-18 0)
(1.0434 -1.72061e-18 0)
(1.04433 -1.73892e-18 0)
(1.04526 -1.7573e-18 0)
(1.04619 -1.77568e-18 0)
(1.04711 -1.79402e-18 0)
(1.04802 -1.8123e-18 0)
(1.04894 -1.8305e-18 0)
(1.04985 -1.84866e-18 0)
(1.05075 -1.86677e-18 0)
(1.05165 -1.88492e-18 0)
(1.05255 -1.90317e-18 0)
(1.05345 -1.92163e-18 0)
(1.05434 -1.9404e-18 0)
(1.05523 -1.95962e-18 0)
(1.05611 -1.97902e-18 0)
(1.057 -1.99867e-18 0)
(1.05787 -2.01857e-18 0)
(1.05875 -2.03866e-18 0)
(1.05962 -2.05879e-18 0)
(1.06049 -2.07831e-18 0)
(1.06135 -2.09666e-18 0)
(1.06222 -2.11332e-18 0)
(1.06307 -2.11506e-18 0)
(1.06393 -2.08656e-18 0)
(1.06478 -2.03331e-18 0)
(1.06563 -2.01556e-18 0)
(1.06648 -2.11323e-18 0)
(1.06732 -2.21351e-18 0)
(1.06816 -2.19054e-18 0)
(1.069 -2.11258e-18 0)
(1.06983 -2.04065e-18 0)
(1.07066 -1.97948e-18 0)
(1.07149 -1.92523e-18 0)
(1.07231 -1.87596e-18 0)
(1.07314 -1.83047e-18 0)
(1.07395 -1.78794e-18 0)
(1.07477 -1.74779e-18 0)
(1.07558 -1.70975e-18 0)
(1.07639 -1.67367e-18 0)
(1.0772 -1.63925e-18 0)
(1.078 -1.60642e-18 0)
(1.0788 -1.57512e-18 0)
(1.0796 -1.54529e-18 0)
(1.0804 -1.51687e-18 0)
(1.08119 -1.48978e-18 0)
(1.08198 -1.46413e-18 0)
(1.08276 -1.43985e-18 0)
(1.08355 -1.41687e-18 0)
(1.08433 -1.39513e-18 0)
(1.0851 -1.37454e-18 0)
(1.08588 -1.35504e-18 0)
(1.08665 -1.33653e-18 0)
(1.08742 -1.31895e-18 0)
(1.08818 -1.30222e-18 0)
(1.08895 -1.28627e-18 0)
(1.08971 -1.2712e-18 0)
(1.09046 -1.25695e-18 0)
(1.09122 -1.24344e-18 0)
(1.09197 -1.2306e-18 0)
(1.09272 -1.21837e-18 0)
(1.09346 -1.2067e-18 0)
(1.0942 -1.19554e-18 0)
(1.09494 -1.18485e-18 0)
(1.09568 -1.17459e-18 0)
(1.09641 -1.16471e-18 0)
(1.09714 -1.15518e-18 0)
(1.09787 -1.14598e-18 0)
(1.0986 -1.13705e-18 0)
(1.09932 -1.12858e-18 0)
(1.10004 -1.12053e-18 0)
(1.10076 -1.1127e-18 0)
(1.10147 -1.10509e-18 0)
(1.10218 -1.09766e-18 0)
(1.10289 -1.09058e-18 0)
(1.10359 -1.08382e-18 0)
(1.10429 -1.07734e-18 0)
(1.10499 -1.07114e-18 0)
(1.10569 -1.06521e-18 0)
(1.10638 -1.05952e-18 0)
(1.10707 -1.05406e-18 0)
(1.10776 -1.04882e-18 0)
(1.10844 -1.04378e-18 0)
(1.10912 -1.03894e-18 0)
(1.1098 -1.03428e-18 0)
(1.11047 -1.02979e-18 0)
(1.11115 -1.02546e-18 0)
(1.11181 -1.02129e-18 0)
(1.11248 -1.01725e-18 0)
(1.11314 -1.01335e-18 0)
(1.1138 -1.00957e-18 0)
(1.11446 -1.00591e-18 0)
(1.11511 -1.00236e-18 0)
(1.11576 -9.98911e-19 0)
(1.11641 -9.95554e-19 0)
(1.11706 -9.92283e-19 0)
(1.1177 -9.89092e-19 0)
(1.11834 -9.85975e-19 0)
(1.11897 -9.82924e-19 0)
(1.1196 -9.79934e-19 0)
(1.12023 -9.76999e-19 0)
(1.12086 -9.74114e-19 0)
(1.12148 -9.71272e-19 0)
(1.1221 -9.68468e-19 0)
(1.12272 -9.65698e-19 0)
(1.12333 -9.62956e-19 0)
(1.12394 -9.60238e-19 0)
(1.12455 -9.5754e-19 0)
(1.12515 -9.54857e-19 0)
(1.12575 -9.52185e-19 0)
(1.12635 -9.49521e-19 0)
(1.12694 -9.46861e-19 0)
(1.12753 -9.44201e-19 0)
(1.12812 -9.41539e-19 0)
(1.12871 -9.3887e-19 0)
(1.12929 -9.36193e-19 0)
(1.12986 -9.33505e-19 0)
(1.13044 -9.30803e-19 0)
(1.13101 -9.28085e-19 0)
(1.13158 -9.25348e-19 0)
(1.13215 -9.22591e-19 0)
(1.13271 -9.19812e-19 0)
(1.13327 -9.17008e-19 0)
(1.13382 -9.14179e-19 0)
(1.13437 -9.11324e-19 0)
(1.13492 -9.08439e-19 0)
(1.13547 -9.05526e-19 0)
(1.13601 -9.02581e-19 0)
(1.13655 -8.99606e-19 0)
(1.13708 -8.96598e-19 0)
(1.13762 -8.93556e-19 0)
(1.13815 -8.90482e-19 0)
(1.13867 -8.87373e-19 0)
(1.13919 -8.84229e-19 0)
(1.13971 -8.81051e-19 0)
(1.14023 -8.77838e-19 0)
(1.14074 -8.74589e-19 0)
(1.14125 -8.71305e-19 0)
(1.14176 -8.67985e-19 0)
(1.14226 -8.6463e-19 0)
(1.14276 -8.6124e-19 0)
(1.14326 -8.57815e-19 0)
(1.14375 -8.54356e-19 0)
(1.14424 -8.50861e-19 0)
(1.14472 -8.47333e-19 0)
(1.14521 -8.43771e-19 0)
(1.14569 -8.40176e-19 0)
(1.14616 -8.36549e-19 0)
(1.14663 -8.32889e-19 0)
(1.1471 -8.29198e-19 0)
(1.14757 -8.25475e-19 0)
(1.14803 -8.21723e-19 0)
(1.14849 -8.17941e-19 0)
(1.14895 -8.1413e-19 0)
(1.1494 -8.1029e-19 0)
(1.14985 -8.06423e-19 0)
(1.1503 -8.0253e-19 0)
(1.15074 -7.98611e-19 0)
(1.15118 -7.94666e-19 0)
(1.15162 -7.90697e-19 0)
(1.15205 -7.86705e-19 0)
(1.15248 -7.8269e-19 0)
(1.1529 -7.78654e-19 0)
(1.15333 -7.74596e-19 0)
(1.15375 -7.70518e-19 0)
(1.15416 -7.66422e-19 0)
(1.15458 -7.62306e-19 0)
(1.15499 -7.58174e-19 0)
(1.15539 -7.54024e-19 0)
(1.1558 -7.49859e-19 0)
(1.1562 -7.4568e-19 0)
(1.15659 -7.41486e-19 0)
(1.15699 -7.37279e-19 0)
(1.15738 -7.33059e-19 0)
(1.15777 -7.28828e-19 0)
(1.15815 -7.24587e-19 0)
(1.15853 -7.20336e-19 0)
(1.15891 -7.16076e-19 0)
(1.15928 -7.11807e-19 0)
(1.15965 -7.07532e-19 0)
(1.16002 -7.03249e-19 0)
(1.16039 -6.98961e-19 0)
(1.16075 -6.94669e-19 0)
(1.16111 -6.90372e-19 0)
(1.16146 -6.86071e-19 0)
(1.16181 -6.81768e-19 0)
(1.16216 -6.77463e-19 0)
(1.16251 -6.73156e-19 0)
(1.16285 -6.6885e-19 0)
(1.16319 -6.64543e-19 0)
(1.16353 -6.60237e-19 0)
(1.16386 -6.55933e-19 0)
(1.16419 -6.51631e-19 0)
(1.16452 -6.47332e-19 0)
(1.16484 -6.43036e-19 0)
(1.16516 -6.38744e-19 0)
(1.16548 -6.34458e-19 0)
(1.1658 -6.30176e-19 0)
(1.16611 -6.259e-19 0)
(1.16642 -6.21631e-19 0)
(1.16672 -6.17369e-19 0)
(1.16703 -6.13115e-19 0)
(1.16732 -6.08868e-19 0)
(1.16762 -6.0463e-19 0)
(1.16792 -6.00402e-19 0)
(1.16821 -5.96183e-19 0)
(1.16849 -5.91974e-19 0)
(1.16878 -5.87775e-19 0)
(1.16906 -5.83588e-19 0)
(1.16934 -5.79412e-19 0)
(1.16962 -5.75248e-19 0)
(1.16989 -5.71097e-19 0)
(1.17016 -5.66958e-19 0)
(1.17043 -5.62832e-19 0)
(1.17069 -5.5872e-19 0)
(1.17095 -5.54622e-19 0)
(1.17121 -5.50538e-19 0)
(1.17147 -5.46468e-19 0)
(1.17172 -5.42414e-19 0)
(1.17197 -5.38375e-19 0)
(1.17222 -5.34351e-19 0)
(1.17246 -5.30343e-19 0)
(1.17271 -5.26352e-19 0)
(1.17295 -5.22377e-19 0)
(1.17318 -5.18419e-19 0)
(1.17342 -5.14478e-19 0)
(1.17365 -5.10554e-19 0)
(1.17387 -5.06648e-19 0)
(1.1741 -5.0276e-19 0)
(1.17432 -4.98889e-19 0)
(1.17454 -4.95037e-19 0)
(1.17476 -4.91204e-19 0)
(1.17497 -4.87389e-19 0)
(1.17519 -4.83593e-19 0)
(1.1754 -4.79816e-19 0)
(1.1756 -4.76058e-19 0)
(1.17581 -4.7232e-19 0)
(1.17601 -4.68602e-19 0)
(1.17621 -4.64903e-19 0)
(1.1764 -4.61224e-19 0)
(1.1766 -4.57565e-19 0)
(1.17679 -4.53926e-19 0)
(1.17697 -4.50308e-19 0)
(1.17716 -4.4671e-19 0)
(1.17734 -4.43133e-19 0)
(1.17752 -4.39576e-19 0)
(1.1777 -4.3604e-19 0)
(1.17788 -4.32525e-19 0)
(1.17805 -4.29031e-19 0)
(1.17822 -4.25558e-19 0)
(1.17839 -4.22106e-19 0)
(1.17855 -4.18675e-19 0)
(1.17872 -4.15266e-19 0)
(1.17888 -4.11877e-19 0)
(1.17903 -4.08511e-19 0)
(1.17919 -4.05165e-19 0)
(1.17934 -4.01841e-19 0)
(1.17949 -3.98539e-19 0)
(1.17964 -3.95258e-19 0)
(1.17979 -3.91999e-19 0)
(1.17993 -3.88761e-19 0)
(1.18007 -3.85545e-19 0)
(1.18021 -3.8235e-19 0)
(1.18034 -3.79177e-19 0)
(1.18048 -3.76026e-19 0)
(1.18061 -3.72896e-19 0)
(1.18074 -3.69788e-19 0)
(1.18086 -3.66702e-19 0)
(1.18099 -3.63637e-19 0)
(1.18111 -3.60594e-19 0)
(1.18123 -3.57572e-19 0)
(1.18135 -3.54572e-19 0)
(1.18146 -3.51593e-19 0)
(1.18157 -3.48636e-19 0)
(1.18168 -3.45701e-19 0)
(1.18179 -3.42787e-19 0)
(1.1819 -3.39894e-19 0)
(1.182 -3.37023e-19 0)
(1.1821 -3.34173e-19 0)
(1.1822 -3.31344e-19 0)
(1.18229 -3.28536e-19 0)
(1.18239 -3.2575e-19 0)
(1.18248 -3.22984e-19 0)
(1.18257 -3.2024e-19 0)
(1.18266 -3.17517e-19 0)
(1.18274 -3.14814e-19 0)
(1.18282 -3.12133e-19 0)
(1.1829 -3.09472e-19 0)
(1.18298 -3.06832e-19 0)
(1.18306 -3.04213e-19 0)
(1.18313 -3.01614e-19 0)
(1.1832 -2.99036e-19 0)
(1.18327 -2.96478e-19 0)
(1.18334 -2.9394e-19 0)
(1.18341 -2.91423e-19 0)
(1.18347 -2.88926e-19 0)
(1.18353 -2.86449e-19 0)
(1.18359 -2.83992e-19 0)
(1.18364 -2.81554e-19 0)
(1.1837 -2.79137e-19 0)
(1.18375 -2.76739e-19 0)
(1.1838 -2.74361e-19 0)
(1.18385 -2.72003e-19 0)
(1.18389 -2.69664e-19 0)
(1.18393 -2.67344e-19 0)
(1.18397 -2.65043e-19 0)
(1.18401 -2.62761e-19 0)
(1.18405 -2.60498e-19 0)
(1.18408 -2.58246e-19 0)
(1.18412 -2.56012e-19 0)
(1.18415 -2.5379e-19 0)
(1.18417 -2.51579e-19 0)
(1.1842 -2.4938e-19 0)
(1.18422 -2.47192e-19 0)
(1.18424 -2.45015e-19 0)
(1.18426 -2.42856e-19 0)
(1.18428 -2.40713e-19 0)
(1.1843 -2.38584e-19 0)
(1.18431 -2.36468e-19 0)
(1.18432 -2.34365e-19 0)
(1.18433 -2.32276e-19 0)
(1.18433 -2.302e-19 0)
(1.18434 -2.28138e-19 0)
(1.18434 -2.26089e-19 0)
(1.18434 -2.24053e-19 0)
(1.18434 -2.2203e-19 0)
(1.18433 -2.20019e-19 0)
(1.18433 -2.18022e-19 0)
(1.18432 -2.16038e-19 0)
(1.18431 -2.14067e-19 0)
(1.1843 -2.12109e-19 0)
(1.18428 -2.10164e-19 0)
(1.18426 -2.08233e-19 0)
(1.18424 -2.06312e-19 0)
(1.18422 -2.04401e-19 0)
(1.1842 -2.02501e-19 0)
(1.18417 -2.00609e-19 0)
(1.18415 -1.98733e-19 0)
(1.18412 -1.96872e-19 0)
(1.18408 -1.95026e-19 0)
(1.18405 -1.93189e-19 0)
(1.18401 -1.9136e-19 0)
(1.18397 -1.89547e-19 0)
(1.18393 -1.8775e-19 0)
(1.18389 -1.85968e-19 0)
(1.18385 -1.84201e-19 0)
(1.1838 -1.82449e-19 0)
(1.18375 -1.80712e-19 0)
(1.1837 -1.7899e-19 0)
(1.18364 -1.77283e-19 0)
(1.18359 -1.7559e-19 0)
(1.18353 -1.73912e-19 0)
(1.18347 -1.72248e-19 0)
(1.18341 -1.70598e-19 0)
(1.18334 -1.68962e-19 0)
(1.18327 -1.6734e-19 0)
(1.1832 -1.65732e-19 0)
(1.18313 -1.64138e-19 0)
(1.18306 -1.62558e-19 0)
(1.18298 -1.60991e-19 0)
(1.1829 -1.59438e-19 0)
(1.18282 -1.57898e-19 0)
(1.18274 -1.56371e-19 0)
(1.18266 -1.54858e-19 0)
(1.18257 -1.53357e-19 0)
(1.18248 -1.5187e-19 0)
(1.18239 -1.50396e-19 0)
(1.18229 -1.48934e-19 0)
(1.1822 -1.47485e-19 0)
(1.1821 -1.46049e-19 0)
(1.182 -1.44625e-19 0)
(1.1819 -1.43213e-19 0)
(1.18179 -1.41814e-19 0)
(1.18168 -1.40427e-19 0)
(1.18157 -1.39053e-19 0)
(1.18146 -1.3769e-19 0)
(1.18135 -1.36339e-19 0)
(1.18123 -1.35e-19 0)
(1.18111 -1.33673e-19 0)
(1.18099 -1.32357e-19 0)
(1.18086 -1.31053e-19 0)
(1.18074 -1.29761e-19 0)
(1.18061 -1.2848e-19 0)
(1.18048 -1.2721e-19 0)
(1.18034 -1.25951e-19 0)
(1.18021 -1.24704e-19 0)
(1.18007 -1.23467e-19 0)
(1.17993 -1.22242e-19 0)
(1.17979 -1.21027e-19 0)
(1.17964 -1.19823e-19 0)
(1.17949 -1.1863e-19 0)
(1.17934 -1.17448e-19 0)
(1.17919 -1.16276e-19 0)
(1.17903 -1.15114e-19 0)
(1.17888 -1.13963e-19 0)
(1.17872 -1.12821e-19 0)
(1.17855 -1.11691e-19 0)
(1.17839 -1.1057e-19 0)
(1.17822 -1.09459e-19 0)
(1.17805 -1.08358e-19 0)
(1.17788 -1.07267e-19 0)
(1.1777 -1.06186e-19 0)
(1.17752 -1.05115e-19 0)
(1.17734 -1.04053e-19 0)
(1.17716 -1.03e-19 0)
(1.17697 -1.01957e-19 0)
(1.17679 -1.00924e-19 0)
(1.1766 -9.98996e-20 0)
(1.1764 -9.88846e-20 0)
(1.17621 -9.78787e-20 0)
(1.17601 -9.68819e-20 0)
(1.17581 -9.58942e-20 0)
(1.1756 -9.49153e-20 0)
(1.1754 -9.39453e-20 0)
(1.17519 -9.29841e-20 0)
(1.17497 -9.20316e-20 0)
(1.17476 -9.10878e-20 0)
(1.17454 -9.01525e-20 0)
(1.17432 -8.92257e-20 0)
(1.1741 -8.83073e-20 0)
(1.17387 -8.73973e-20 0)
(1.17365 -8.64956e-20 0)
(1.17342 -8.56021e-20 0)
(1.17318 -8.47167e-20 0)
(1.17295 -8.38394e-20 0)
(1.17271 -8.29702e-20 0)
(1.17246 -8.21089e-20 0)
(1.17222 -8.12555e-20 0)
(1.17197 -8.04099e-20 0)
(1.17172 -7.9572e-20 0)
(1.17147 -7.87419e-20 0)
(1.17121 -7.79193e-20 0)
(1.17095 -7.71044e-20 0)
(1.17069 -7.62969e-20 0)
(1.17043 -7.54969e-20 0)
(1.17016 -7.47042e-20 0)
(1.16989 -7.39189e-20 0)
(1.16962 -7.31408e-20 0)
(1.16934 -7.23699e-20 0)
(1.16906 -7.16062e-20 0)
(1.16878 -7.08495e-20 0)
(1.16849 -7.00999e-20 0)
(1.16821 -6.93572e-20 0)
(1.16792 -6.86214e-20 0)
(1.16762 -6.78925e-20 0)
(1.16732 -6.71703e-20 0)
(1.16703 -6.64549e-20 0)
(1.16672 -6.57462e-20 0)
(1.16642 -6.50441e-20 0)
(1.16611 -6.43486e-20 0)
(1.1658 -6.36595e-20 0)
(1.16548 -6.2977e-20 0)
(1.16516 -6.23008e-20 0)
(1.16484 -6.1631e-20 0)
(1.16452 -6.09675e-20 0)
(1.16419 -6.03102e-20 0)
(1.16386 -5.96592e-20 0)
(1.16353 -5.90143e-20 0)
(1.16319 -5.83755e-20 0)
(1.16285 -5.77427e-20 0)
(1.16251 -5.7116e-20 0)
(1.16216 -5.64951e-20 0)
(1.16181 -5.58802e-20 0)
(1.16146 -5.52712e-20 0)
(1.16111 -5.46679e-20 0)
(1.16075 -5.40704e-20 0)
(1.16039 -5.34786e-20 0)
(1.16002 -5.28925e-20 0)
(1.15965 -5.2312e-20 0)
(1.15928 -5.1737e-20 0)
(1.15891 -5.11676e-20 0)
(1.15853 -5.06037e-20 0)
(1.15815 -5.00451e-20 0)
(1.15777 -4.9492e-20 0)
(1.15738 -4.89443e-20 0)
(1.15699 -4.84018e-20 0)
(1.15659 -4.78646e-20 0)
(1.1562 -4.73326e-20 0)
(1.1558 -4.68058e-20 0)
(1.15539 -4.62841e-20 0)
(1.15499 -4.57675e-20 0)
(1.15458 -4.52559e-20 0)
(1.15416 -4.47494e-20 0)
(1.15375 -4.42478e-20 0)
(1.15333 -4.37512e-20 0)
(1.1529 -4.32594e-20 0)
(1.15248 -4.27725e-20 0)
(1.15205 -4.22904e-20 0)
(1.15162 -4.1813e-20 0)
(1.15118 -4.13404e-20 0)
(1.15074 -4.08725e-20 0)
(1.1503 -4.04092e-20 0)
(1.14985 -3.99506e-20 0)
(1.1494 -3.94965e-20 0)
(1.14895 -3.9047e-20 0)
(1.14849 -3.8602e-20 0)
(1.14803 -3.81614e-20 0)
(1.14757 -3.77253e-20 0)
(1.1471 -3.72935e-20 0)
(1.14663 -3.68661e-20 0)
(1.14616 -3.64431e-20 0)
(1.14569 -3.60243e-20 0)
(1.14521 -3.56098e-20 0)
(1.14472 -3.51995e-20 0)
(1.14424 -3.47934e-20 0)
(1.14375 -3.43914e-20 0)
(1.14326 -3.39935e-20 0)
(1.14276 -3.35998e-20 0)
(1.14226 -3.32101e-20 0)
(1.14176 -3.28243e-20 0)
(1.14125 -3.24426e-20 0)
(1.14074 -3.20648e-20 0)
(1.14023 -3.1691e-20 0)
(1.13971 -3.1321e-20 0)
(1.13919 -3.09549e-20 0)
(1.13867 -3.05926e-20 0)
(1.13815 -3.02341e-20 0)
(1.13762 -2.98793e-20 0)
(1.13708 -2.95283e-20 0)
(1.13655 -2.91809e-20 0)
(1.13601 -2.88373e-20 0)
(1.13547 -2.84972e-20 0)
(1.13492 -2.81608e-20 0)
(1.13437 -2.78279e-20 0)
(1.13382 -2.74986e-20 0)
(1.13327 -2.71728e-20 0)
(1.13271 -2.68505e-20 0)
(1.13215 -2.65317e-20 0)
(1.13158 -2.62162e-20 0)
(1.13101 -2.59042e-20 0)
(1.13044 -2.55955e-20 0)
(1.12986 -2.52902e-20 0)
(1.12929 -2.49881e-20 0)
(1.12871 -2.46894e-20 0)
(1.12812 -2.43939e-20 0)
(1.12753 -2.41017e-20 0)
(1.12694 -2.38126e-20 0)
(1.12635 -2.35267e-20 0)
(1.12575 -2.3244e-20 0)
(1.12515 -2.29643e-20 0)
(1.12455 -2.26878e-20 0)
(1.12394 -2.24143e-20 0)
(1.12333 -2.21439e-20 0)
(1.12272 -2.18764e-20 0)
(1.1221 -2.1612e-20 0)
(1.12148 -2.13505e-20 0)
(1.12086 -2.10919e-20 0)
(1.12023 -2.08362e-20 0)
(1.1196 -2.05834e-20 0)
(1.11897 -2.03335e-20 0)
(1.11834 -2.00864e-20 0)
(1.1177 -1.98421e-20 0)
(1.11706 -1.96005e-20 0)
(1.11641 -1.93617e-20 0)
(1.11576 -1.91257e-20 0)
(1.11511 -1.88923e-20 0)
(1.11446 -1.86616e-20 0)
(1.1138 -1.84336e-20 0)
(1.11314 -1.82081e-20 0)
(1.11248 -1.79853e-20 0)
(1.11181 -1.77651e-20 0)
(1.11115 -1.75474e-20 0)
(1.11047 -1.73322e-20 0)
(1.1098 -1.71196e-20 0)
(1.10912 -1.69094e-20 0)
(1.10844 -1.67017e-20 0)
(1.10776 -1.64964e-20 0)
(1.10707 -1.62935e-20 0)
(1.10638 -1.60931e-20 0)
(1.10569 -1.58949e-20 0)
(1.10499 -1.56992e-20 0)
(1.10429 -1.55057e-20 0)
(1.10359 -1.53145e-20 0)
(1.10289 -1.51257e-20 0)
(1.10218 -1.4939e-20 0)
(1.10147 -1.47546e-20 0)
(1.10076 -1.45724e-20 0)
(1.10004 -1.43924e-20 0)
(1.09932 -1.42145e-20 0)
(1.0986 -1.40388e-20 0)
(1.09787 -1.38652e-20 0)
(1.09714 -1.36937e-20 0)
(1.09641 -1.35243e-20 0)
(1.09568 -1.3357e-20 0)
(1.09494 -1.31916e-20 0)
(1.0942 -1.30283e-20 0)
(1.09346 -1.2867e-20 0)
(1.09272 -1.27077e-20 0)
(1.09197 -1.25503e-20 0)
(1.09122 -1.23948e-20 0)
(1.09046 -1.22412e-20 0)
(1.08971 -1.20896e-20 0)
(1.08895 -1.19398e-20 0)
(1.08818 -1.17919e-20 0)
(1.08742 -1.16458e-20 0)
(1.08665 -1.15015e-20 0)
(1.08588 -1.1359e-20 0)
(1.0851 -1.12182e-20 0)
(1.08433 -1.10793e-20 0)
(1.08355 -1.0942e-20 0)
(1.08276 -1.08065e-20 0)
(1.08198 -1.06727e-20 0)
(1.08119 -1.05406e-20 0)
(1.0804 -1.04101e-20 0)
(1.0796 -1.02813e-20 0)
(1.0788 -1.01541e-20 0)
(1.078 -1.00284e-20 0)
(1.0772 -9.90444e-21 0)
(1.07639 -9.78199e-21 0)
(1.07558 -9.66111e-21 0)
(1.07477 -9.54176e-21 0)
(1.07395 -9.42392e-21 0)
(1.07314 -9.30759e-21 0)
(1.07231 -9.19275e-21 0)
(1.07149 -9.07937e-21 0)
(1.07066 -8.96744e-21 0)
(1.06983 -8.85695e-21 0)
(1.069 -8.74788e-21 0)
(1.06816 -8.64021e-21 0)
(1.06732 -8.53392e-21 0)
(1.06648 -8.42901e-21 0)
(1.06563 -8.32545e-21 0)
(1.06478 -8.22322e-21 0)
(1.06393 -8.12232e-21 0)
(1.06307 -8.02273e-21 0)
(1.06222 -7.92443e-21 0)
(1.06135 -7.8274e-21 0)
(1.06049 -7.73164e-21 0)
(1.05962 -7.63712e-21 0)
(1.05875 -7.54384e-21 0)
(1.05787 -7.45177e-21 0)
(1.057 -7.36091e-21 0)
(1.05611 -7.27123e-21 0)
(1.05523 -7.18273e-21 0)
(1.05434 -7.09539e-21 0)
(1.05345 -7.00919e-21 0)
(1.05255 -6.92413e-21 0)
(1.05165 -6.84019e-21 0)
(1.05075 -6.75735e-21 0)
(1.04985 -6.6756e-21 0)
(1.04894 -6.59493e-21 0)
(1.04802 -6.51533e-21 0)
(1.04711 -6.43678e-21 0)
(1.04619 -6.35927e-21 0)
(1.04526 -6.28279e-21 0)
(1.04433 -6.20732e-21 0)
(1.0434 -6.13285e-21 0)
(1.04247 -6.05937e-21 0)
(1.04153 -5.98687e-21 0)
(1.04058 -5.91534e-21 0)
(1.03964 -5.84475e-21 0)
(1.03869 -5.77511e-21 0)
(1.03773 -5.7064e-21 0)
(1.03677 -5.63861e-21 0)
(1.03581 -5.57172e-21 0)
(1.03484 -5.50573e-21 0)
(1.03387 -5.44063e-21 0)
(1.03289 -5.3764e-21 0)
(1.03191 -5.31303e-21 0)
(1.03093 -5.25051e-21 0)
(1.02994 -5.18883e-21 0)
(1.02894 -5.12798e-21 0)
(1.02795 -5.06795e-21 0)
(1.02694 -5.00873e-21 0)
(1.02594 -4.95031e-21 0)
(1.02492 -4.89268e-21 0)
(1.02391 -4.83583e-21 0)
(1.02289 -4.77975e-21 0)
(1.02186 -4.72443e-21 0)
(1.02083 -4.66985e-21 0)
(1.01979 -4.61602e-21 0)
(1.01875 -4.56292e-21 0)
(1.0177 -4.51054e-21 0)
(1.01665 -4.45887e-21 0)
(1.01559 -4.4079e-21 0)
(1.01453 -4.35763e-21 0)
(1.01346 -4.30804e-21 0)
(1.01239 -4.25913e-21 0)
(1.01131 -4.21089e-21 0)
(1.01022 -4.1633e-21 0)
(1.00913 -4.11637e-21 0)
(1.00803 -4.07008e-21 0)
(1.00693 -4.02442e-21 0)
(1.00582 -3.97939e-21 0)
(1.00471 -3.93498e-21 0)
(1.00358 -3.89117e-21 0)
(1.00246 -3.84797e-21 0)
(1.00132 -3.80536e-21 0)
(1.00018 -3.76334e-21 0)
(0.999033 -3.7219e-21 0)
(0.997878 -3.68102e-21 0)
(0.996717 -3.64071e-21 0)
(0.995548 -3.60096e-21 0)
(0.994372 -3.56176e-21 0)
(0.993189 -3.5231e-21 0)
(0.991999 -3.48497e-21 0)
(0.990801 -3.44737e-21 0)
(0.989595 -3.41029e-21 0)
(0.988382 -3.37373e-21 0)
(0.987161 -3.33767e-21 0)
(0.985931 -3.30211e-21 0)
(0.984693 -3.26705e-21 0)
(0.983447 -3.23248e-21 0)
(0.982193 -3.19838e-21 0)
(0.980929 -3.16476e-21 0)
(0.979657 -3.13161e-21 0)
(0.978376 -3.09892e-21 0)
(0.977086 -3.06669e-21 0)
(0.975786 -3.03491e-21 0)
(0.974477 -3.00357e-21 0)
(0.973158 -2.97267e-21 0)
(0.971829 -2.9422e-21 0)
(0.97049 -2.91215e-21 0)
(0.969141 -2.88253e-21 0)
(0.967781 -2.85332e-21 0)
(0.96641 -2.82453e-21 0)
(0.965029 -2.79613e-21 0)
(0.963636 -2.76814e-21 0)
(0.962232 -2.74053e-21 0)
(0.960816 -2.71332e-21 0)
(0.959388 -2.68649e-21 0)
(0.957949 -2.66003e-21 0)
(0.956496 -2.63395e-21 0)
(0.955031 -2.60823e-21 0)
(0.953554 -2.58287e-21 0)
(0.952062 -2.55787e-21 0)
(0.950558 -2.53322e-21 0)
(0.949039 -2.50892e-21 0)
(0.947506 -2.48496e-21 0)
(0.945959 -2.46133e-21 0)
(0.944397 -2.43804e-21 0)
(0.94282 -2.41507e-21 0)
(0.941227 -2.39243e-21 0)
(0.939618 -2.3701e-21 0)
(0.937993 -2.34809e-21 0)
(0.936351 -2.32639e-21 0)
(0.934692 -2.30499e-21 0)
(0.933016 -2.28388e-21 0)
(0.931321 -2.26307e-21 0)
(0.929608 -2.24256e-21 0)
(0.927876 -2.22232e-21 0)
(0.926124 -2.20237e-21 0)
(0.924353 -2.18269e-21 0)
(0.922561 -2.16329e-21 0)
(0.920748 -2.14415e-21 0)
(0.918913 -2.12528e-21 0)
(0.917056 -2.10666e-21 0)
(0.915176 -2.0883e-21 0)
(0.913273 -2.07019e-21 0)
(0.911345 -2.05233e-21 0)
(0.909392 -2.0347e-21 0)
(0.907414 -2.01731e-21 0)
(0.905409 -2.00015e-21 0)
(0.903377 -1.98322e-21 0)
(0.901316 -1.96651e-21 0)
(0.899227 -1.95002e-21 0)
(0.897107 -1.93375e-21 0)
(0.894957 -1.91768e-21 0)
(0.892774 -1.90182e-21 0)
(0.890558 -1.88616e-21 0)
(0.888308 -1.87069e-21 0)
(0.886023 -1.85541e-21 0)
(0.883701 -1.84032e-21 0)
(0.881341 -1.82541e-21 0)
(0.878942 -1.81067e-21 0)
(0.876502 -1.7961e-21 0)
(0.874019 -1.7817e-21 0)
(0.871492 -1.76745e-21 0)
(0.86892 -1.75336e-21 0)
(0.866299 -1.73942e-21 0)
(0.86363 -1.72562e-21 0)
(0.860908 -1.71196e-21 0)
(0.858133 -1.69842e-21 0)
(0.855302 -1.68501e-21 0)
(0.852412 -1.67172e-21 0)
(0.84946 -1.65853e-21 0)
(0.846444 -1.64545e-21 0)
(0.843362 -1.63246e-21 0)
(0.840208 -1.61956e-21 0)
(0.836981 -1.60674e-21 0)
(0.833676 -1.59399e-21 0)
(0.830289 -1.58129e-21 0)
(0.826816 -1.56865e-21 0)
(0.823252 -1.55605e-21 0)
(0.819592 -1.54348e-21 0)
(0.815831 -1.53092e-21 0)
(0.811962 -1.51837e-21 0)
(0.807979 -1.50581e-21 0)
(0.803874 -1.49322e-21 0)
(0.79964 -1.4806e-21 0)
(0.795269 -1.46791e-21 0)
(0.790749 -1.45516e-21 0)
(0.786072 -1.4423e-21 0)
(0.781225 -1.42933e-21 0)
(0.776195 -1.41621e-21 0)
(0.770967 -1.40291e-21 0)
(0.765525 -1.38942e-21 0)
(0.759851 -1.37569e-21 0)
(0.753924 -1.36168e-21 0)
(0.74772 -1.34735e-21 0)
(0.741211 -1.33265e-21 0)
(0.734366 -1.31752e-21 0)
(0.727149 -1.3019e-21 0)
(0.719517 -1.2857e-21 0)
(0.71142 -1.26885e-21 0)
(0.702798 -1.25122e-21 0)
(0.69358 -1.2327e-21 0)
(0.68368 -1.21313e-21 0)
(0.672992 -1.19232e-21 0)
(0.661383 -1.17004e-21 0)
(0.648688 -1.14598e-21 0)
(0.634692 -1.11979e-21 0)
(0.619115 -1.09095e-21 0)
(0.601581 -1.05881e-21 0)
(0.581575 -1.02246e-21 0)
(0.558364 -9.80616e-22 0)
(0.530877 -9.31398e-22 0)
(0.497494 -8.71969e-22 0)
(0.455715 -7.97958e-22 0)
(0.4018 -7.02842e-22 0)
(0.331433 -5.79125e-22 0)
(0.244284 -4.26351e-22 0)
(0.147901 -2.57824e-22 0)
(0.0494125 -8.60142e-23 0)
)
;

boundaryField
{
    top_wall
    {
        type            noSlip;
    }
    inlet
    {
        type            cyclic;
    }
    bot_wall
    {
        type            noSlip;
    }
    outlet
    {
        type            cyclic;
    }
    frontAndBack
    {
        type            empty;
    }
}


// ************************************************************************* //
