# Wall shear stress
# Time          	patch           	min             	max             
0.5             	top_wall	(-4.50278865e-03 9.12270599e-29 0.00000000e+00)	(-4.50278865e-03 9.12270599e-29 0.00000000e+00)
0.5             	bot_wall	(-4.50278570e-03 2.56562330e-20 0.00000000e+00)	(-4.50278570e-03 2.56562330e-20 0.00000000e+00)
1               	top_wall	(-3.89474903e-03 4.80454312e-29 0.00000000e+00)	(-3.89474903e-03 4.80454312e-29 0.00000000e+00)
1               	bot_wall	(-3.89474696e-03 2.68027413e-20 0.00000000e+00)	(-3.89474696e-03 2.68027413e-20 0.00000000e+00)
1.5             	top_wall	(-3.57667177e-03 5.84935251e-29 0.00000000e+00)	(-3.57667177e-03 5.84935251e-29 0.00000000e+00)
1.5             	bot_wall	(-3.57667117e-03 2.19339468e-19 0.00000000e+00)	(-3.57667117e-03 2.19339468e-19 0.00000000e+00)
2               	top_wall	(-3.36840575e-03 1.90812813e-28 0.00000000e+00)	(-3.36840575e-03 1.90812813e-28 0.00000000e+00)
2               	bot_wall	(-3.36840603e-03 8.96928414e-20 0.00000000e+00)	(-3.36840603e-03 8.96928414e-20 0.00000000e+00)
2.5             	top_wall	(-3.21754700e-03 3.99783525e-29 0.00000000e+00)	(-3.21754700e-03 3.99783525e-29 0.00000000e+00)
2.5             	bot_wall	(-3.21754778e-03 4.31852751e-20 0.00000000e+00)	(-3.21754778e-03 4.31852751e-20 0.00000000e+00)
3               	top_wall	(-3.10174870e-03 1.18003136e-28 0.00000000e+00)	(-3.10174870e-03 1.18003136e-28 0.00000000e+00)
3               	bot_wall	(-3.10174967e-03 1.38711888e-19 0.00000000e+00)	(-3.10174967e-03 1.38711888e-19 0.00000000e+00)
3.5             	top_wall	(-3.00944637e-03 -1.41506584e-28 0.00000000e+00)	(-3.00944637e-03 -1.41506584e-28 0.00000000e+00)
3.5             	bot_wall	(-3.00944737e-03 1.02992595e-19 0.00000000e+00)	(-3.00944737e-03 1.02992595e-19 0.00000000e+00)
4               	top_wall	(-2.93389738e-03 5.05621239e-29 0.00000000e+00)	(-2.93389738e-03 5.05621239e-29 0.00000000e+00)
4               	bot_wall	(-2.93389833e-03 1.88186083e-20 0.00000000e+00)	(-2.93389833e-03 1.88186083e-20 0.00000000e+00)
4.5             	top_wall	(-2.87083739e-03 1.67761010e-28 0.00000000e+00)	(-2.87083739e-03 1.67761010e-28 0.00000000e+00)
4.5             	bot_wall	(-2.87083825e-03 -1.62221973e-20 0.00000000e+00)	(-2.87083825e-03 -1.62221973e-20 0.00000000e+00)
5               	top_wall	(-2.81740520e-03 3.34518978e-28 0.00000000e+00)	(-2.81740520e-03 3.34518978e-28 0.00000000e+00)
5               	bot_wall	(-2.81740594e-03 8.99077139e-20 0.00000000e+00)	(-2.81740594e-03 8.99077139e-20 0.00000000e+00)
5.5             	top_wall	(-2.77159279e-03 -2.48243780e-28 0.00000000e+00)	(-2.77159279e-03 -2.48243780e-28 0.00000000e+00)
5.5             	bot_wall	(-2.77159344e-03 1.05677380e-19 0.00000000e+00)	(-2.77159344e-03 1.05677380e-19 0.00000000e+00)
6               	top_wall	(-2.73193986e-03 -8.09425079e-28 0.00000000e+00)	(-2.73193986e-03 -8.09425079e-28 0.00000000e+00)
6               	bot_wall	(-2.73194041e-03 7.93708753e-20 0.00000000e+00)	(-2.73194041e-03 7.93708753e-20 0.00000000e+00)
6.5             	top_wall	(-2.69735383e-03 4.57358531e-28 0.00000000e+00)	(-2.69735383e-03 4.57358531e-28 0.00000000e+00)
6.5             	bot_wall	(-2.69735428e-03 -3.72727928e-20 0.00000000e+00)	(-2.69735428e-03 -3.72727928e-20 0.00000000e+00)
7               	top_wall	(-2.66699749e-03 8.84030034e-27 0.00000000e+00)	(-2.66699749e-03 8.84030034e-27 0.00000000e+00)
7               	bot_wall	(-2.66699787e-03 4.90499934e-20 0.00000000e+00)	(-2.66699787e-03 4.90499934e-20 0.00000000e+00)
7.5             	top_wall	(-2.64021654e-03 3.51371593e-26 0.00000000e+00)	(-2.64021654e-03 3.51371593e-26 0.00000000e+00)
7.5             	bot_wall	(-2.64021685e-03 2.16112458e-20 0.00000000e+00)	(-2.64021685e-03 2.16112458e-20 0.00000000e+00)
8               	top_wall	(-2.61649089e-03 9.84821978e-26 0.00000000e+00)	(-2.61649089e-03 9.84821978e-26 0.00000000e+00)
8               	bot_wall	(-2.61649115e-03 4.54027198e-20 0.00000000e+00)	(-2.61649115e-03 4.54027198e-20 0.00000000e+00)
8.5             	top_wall	(-2.59540095e-03 2.28120961e-25 0.00000000e+00)	(-2.59540095e-03 2.28120961e-25 0.00000000e+00)
8.5             	bot_wall	(-2.59540117e-03 6.10524460e-20 0.00000000e+00)	(-2.59540117e-03 6.10524460e-20 0.00000000e+00)
9               	top_wall	(-2.57660389e-03 4.63174281e-25 0.00000000e+00)	(-2.57660389e-03 4.63174281e-25 0.00000000e+00)
9               	bot_wall	(-2.57660407e-03 1.39880304e-19 0.00000000e+00)	(-2.57660407e-03 1.39880304e-19 0.00000000e+00)
9.5             	top_wall	(-2.55981635e-03 8.53330602e-25 0.00000000e+00)	(-2.55981635e-03 8.53330602e-25 0.00000000e+00)
9.5             	bot_wall	(-2.55981650e-03 1.14235863e-19 0.00000000e+00)	(-2.55981650e-03 1.14235863e-19 0.00000000e+00)
10              	top_wall	(-2.54480163e-03 1.45455782e-24 0.00000000e+00)	(-2.54480163e-03 1.45455782e-24 0.00000000e+00)
10              	bot_wall	(-2.54480177e-03 -1.20841694e-20 0.00000000e+00)	(-2.54480177e-03 -1.20841694e-20 0.00000000e+00)
10.5            	top_wall	(-2.53136033e-03 2.32698672e-24 0.00000000e+00)	(-2.53136033e-03 2.32698672e-24 0.00000000e+00)
10.5            	bot_wall	(-2.53136045e-03 1.70281043e-19 0.00000000e+00)	(-2.53136045e-03 1.70281043e-19 0.00000000e+00)
11              	top_wall	(-2.51932276e-03 3.53086292e-24 0.00000000e+00)	(-2.51932276e-03 3.53086292e-24 0.00000000e+00)
11              	bot_wall	(-2.51932287e-03 9.70573813e-20 0.00000000e+00)	(-2.51932287e-03 9.70573813e-20 0.00000000e+00)
11.5            	top_wall	(-2.50854379e-03 5.12348299e-24 0.00000000e+00)	(-2.50854379e-03 5.12348299e-24 0.00000000e+00)
11.5            	bot_wall	(-2.50854389e-03 1.54477902e-19 0.00000000e+00)	(-2.50854389e-03 1.54477902e-19 0.00000000e+00)
12              	top_wall	(-2.49889783e-03 7.15579977e-24 0.00000000e+00)	(-2.49889783e-03 7.15579977e-24 0.00000000e+00)
12              	bot_wall	(-2.49889793e-03 1.21463807e-19 0.00000000e+00)	(-2.49889793e-03 1.21463807e-19 0.00000000e+00)
12.5            	top_wall	(-2.49027596e-03 9.67094497e-24 0.00000000e+00)	(-2.49027596e-03 9.67094497e-24 0.00000000e+00)
12.5            	bot_wall	(-2.49027606e-03 1.62810374e-19 0.00000000e+00)	(-2.49027606e-03 1.62810374e-19 0.00000000e+00)
13              	top_wall	(-2.48258269e-03 1.27015248e-23 0.00000000e+00)	(-2.48258269e-03 1.27015248e-23 0.00000000e+00)
13              	bot_wall	(-2.48258279e-03 1.49042939e-19 0.00000000e+00)	(-2.48258279e-03 1.49042939e-19 0.00000000e+00)
13.5            	top_wall	(-2.47573398e-03 1.62712000e-23 0.00000000e+00)	(-2.47573398e-03 1.62712000e-23 0.00000000e+00)
13.5            	bot_wall	(-2.47573409e-03 -1.24193351e-19 0.00000000e+00)	(-2.47573409e-03 -1.24193351e-19 0.00000000e+00)
