/*--------------------------------*- C++ -*----------------------------------*\
| =========                 |                                                 |
| \\      /  F ield         | OpenFOAM: The Open Source CFD Toolbox           |
|  \\    /   O peration     | Version:  2312                                  |
|   \\  /    A nd           | Website:  www.openfoam.com                      |
|    \\/     M anipulation  |                                                 |
\*---------------------------------------------------------------------------*/
FoamFile
{
    version     2.0;
    format      ascii;
    arch        "LSB;label=32;scalar=64";
    class       volScalarField;
    location    "9.15";
    object      k;
}
// * * * * * * * * * * * * * * * * * * * * * * * * * * * * * * * * * * * * * //

dimensions      [0 2 -2 0 0 0 0];

internalField   nonuniform List<scalar> 
500
(
0.00594809
0.00581193
0.00637098
0.00671971
0.00693586
0.00707644
0.00717099
0.00723565
0.00727985
0.00730948
0.0073284
0.00733923
0.00734381
0.00734349
0.00733925
0.00733186
0.0073219
0.00730981
0.00729595
0.00728062
0.00726404
0.00724641
0.00722789
0.0072086
0.00718865
0.00716813
0.00714713
0.0071257
0.0071039
0.00708179
0.00705939
0.00703675
0.00701389
0.00699085
0.00696764
0.00694429
0.0069208
0.0068972
0.0068735
0.00684971
0.00682584
0.0068019
0.00677789
0.00675383
0.00672971
0.00670554
0.00668133
0.00665708
0.00663279
0.00660847
0.00658411
0.00655973
0.00653531
0.00651087
0.0064864
0.0064619
0.00643737
0.00641283
0.00638825
0.00636366
0.00633903
0.00631439
0.00628972
0.00626502
0.0062403
0.00621555
0.00619078
0.00616599
0.00614117
0.00611632
0.00609144
0.00606654
0.00604162
0.00601666
0.00599168
0.00596667
0.00594163
0.00591656
0.00589147
0.00586634
0.00584119
0.00581601
0.0057908
0.00576556
0.00574029
0.00571499
0.00568966
0.00566431
0.00563892
0.0056135
0.00558806
0.00556259
0.00553708
0.00551156
0.005486
0.00546041
0.0054348
0.00540916
0.0053835
0.00535781
0.0053321
0.00530636
0.00528059
0.00525481
0.005229
0.00520317
0.00517732
0.00515145
0.00512557
0.00509966
0.00507374
0.0050478
0.00502185
0.00499589
0.00496991
0.00494392
0.00491793
0.00489192
0.00486591
0.0048399
0.00481388
0.00478785
0.00476183
0.00473581
0.00470979
0.00468377
0.00465777
0.00463177
0.00460577
0.00457979
0.00455383
0.00452788
0.00450195
0.00447603
0.00445014
0.00442427
0.00439843
0.00437262
0.00434684
0.00432109
0.00429537
0.0042697
0.00424406
0.00421846
0.00419291
0.00416741
0.00414196
0.00411656
0.00409121
0.00406593
0.0040407
0.00401554
0.00399044
0.00396541
0.00394046
0.00391557
0.00389077
0.00386605
0.00384141
0.00381686
0.00379239
0.00376802
0.00374375
0.00371957
0.0036955
0.00367153
0.00364767
0.00362392
0.00360029
0.00357678
0.00355339
0.00353012
0.00350698
0.00348398
0.00346111
0.00343838
0.0034158
0.00339336
0.00337107
0.00334894
0.00332696
0.00330515
0.0032835
0.00326203
0.00324072
0.0032196
0.00319866
0.0031779
0.00315733
0.00313696
0.00311678
0.00309681
0.00307705
0.0030575
0.00303816
0.00301905
0.00300016
0.0029815
0.00296307
0.00294489
0.00292695
0.00290926
0.00289182
0.00287464
0.00285773
0.00284108
0.00282471
0.00280862
0.00279282
0.0027773
0.00276208
0.00274715
0.00273254
0.00271823
0.00270424
0.00269057
0.00267722
0.00266421
0.00265153
0.00263919
0.0026272
0.00261556
0.00260427
0.00259335
0.00258279
0.00257259
0.00256277
0.00255333
0.00254427
0.0025356
0.00252731
0.00251942
0.00251192
0.00250483
0.00249813
0.00249184
0.00248596
0.00248049
0.00247543
0.00247078
0.00246656
0.00246275
0.00245936
0.00245639
0.00245384
0.00245171
0.00245001
0.00244874
0.00244789
0.00244746
0.00244746
0.00244789
0.00244874
0.00245001
0.00245171
0.00245384
0.00245638
0.00245935
0.00246274
0.00246655
0.00247078
0.00247542
0.00248048
0.00248596
0.00249184
0.00249813
0.00250482
0.00251192
0.00251941
0.00252731
0.00253559
0.00254427
0.00255333
0.00256277
0.00257259
0.00258278
0.00259334
0.00260426
0.00261555
0.00262719
0.00263918
0.00265152
0.0026642
0.00267721
0.00269056
0.00270423
0.00271822
0.00273253
0.00274714
0.00276207
0.00277729
0.00279281
0.00280861
0.0028247
0.00284107
0.00285772
0.00287463
0.00289181
0.00290925
0.00292694
0.00294488
0.00296306
0.00298149
0.00300015
0.00301904
0.00303815
0.00305749
0.00307704
0.0030968
0.00311677
0.00313695
0.00315732
0.00317789
0.00319865
0.00321959
0.00324071
0.00326202
0.0032835
0.00330514
0.00332696
0.00334893
0.00337106
0.00339335
0.00341579
0.00343838
0.0034611
0.00348397
0.00350698
0.00353011
0.00355338
0.00357677
0.00360029
0.00362392
0.00364767
0.00367152
0.00369549
0.00371957
0.00374374
0.00376802
0.00379239
0.00381685
0.00384141
0.00386605
0.00389077
0.00391557
0.00394046
0.00396541
0.00399044
0.00401554
0.0040407
0.00406593
0.00409121
0.00411656
0.00414196
0.00416741
0.00419291
0.00421846
0.00424406
0.0042697
0.00429537
0.00432109
0.00434684
0.00437262
0.00439844
0.00442428
0.00445014
0.00447604
0.00450195
0.00452788
0.00455383
0.0045798
0.00460578
0.00463177
0.00465777
0.00468378
0.00470979
0.00473581
0.00476183
0.00478786
0.00481388
0.0048399
0.00486592
0.00489193
0.00491793
0.00494393
0.00496991
0.00499589
0.00502186
0.00504781
0.00507374
0.00509966
0.00512557
0.00515146
0.00517733
0.00520317
0.005229
0.00525481
0.0052806
0.00530636
0.0053321
0.00535781
0.0053835
0.00540916
0.0054348
0.00546041
0.005486
0.00551156
0.00553709
0.00556259
0.00558806
0.0056135
0.00563892
0.00566431
0.00568966
0.00571499
0.00574029
0.00576556
0.0057908
0.00581601
0.00584119
0.00586634
0.00589147
0.00591656
0.00594163
0.00596667
0.00599168
0.00601666
0.00604161
0.00606654
0.00609144
0.00611632
0.00614116
0.00616599
0.00619078
0.00621555
0.0062403
0.00626502
0.00628971
0.00631439
0.00633903
0.00636365
0.00638825
0.00641283
0.00643737
0.0064619
0.00648639
0.00651087
0.00653531
0.00655973
0.00658411
0.00660847
0.00663279
0.00665708
0.00668133
0.00670554
0.00672971
0.00675383
0.00677789
0.0068019
0.00682584
0.00684971
0.0068735
0.0068972
0.0069208
0.00694428
0.00696764
0.00699085
0.00701389
0.00703675
0.00705939
0.00708178
0.0071039
0.0071257
0.00714713
0.00716813
0.00718865
0.0072086
0.00722789
0.00724641
0.00726404
0.00728062
0.00729595
0.0073098
0.0073219
0.00733186
0.00733925
0.00734348
0.00734381
0.00733923
0.0073284
0.00730948
0.00727985
0.00723565
0.00717099
0.00707644
0.00693586
0.00671971
0.00637098
0.00581193
0.00594809
)
;

boundaryField
{
    top_wall
    {
        type            kLowReWallFunction;
        value           uniform 0.000574883;
    }
    inlet
    {
        type            cyclic;
    }
    bot_wall
    {
        type            kLowReWallFunction;
        value           uniform 0.000574883;
    }
    outlet
    {
        type            cyclic;
    }
    frontAndBack
    {
        type            empty;
    }
}


// ************************************************************************* //
