/*--------------------------------*- C++ -*----------------------------------*\
| =========                 |                                                 |
| \\      /  F ield         | OpenFOAM: The Open Source CFD Toolbox           |
|  \\    /   O peration     | Version:  2312                                  |
|   \\  /    A nd           | Website:  www.openfoam.com                      |
|    \\/     M anipulation  |                                                 |
\*---------------------------------------------------------------------------*/
FoamFile
{
    version     2.0;
    format      ascii;
    arch        "LSB;label=32;scalar=64";
    class       volScalarField;
    location    "9.15";
    object      nut;
}
// * * * * * * * * * * * * * * * * * * * * * * * * * * * * * * * * * * * * * //

dimensions      [0 2 -1 0 0 0 0];

internalField   nonuniform List<scalar> 
500
(
3.2523e-05
7.77682e-05
0.000148529
0.000223731
0.000298923
0.000373083
0.000445961
0.000517526
0.000587808
0.000656861
0.000724736
0.000791485
0.000857152
0.000921778
0.000985395
0.00104804
0.00110972
0.00117049
0.00123034
0.0012893
0.00134738
0.0014046
0.00146097
0.00151649
0.00157119
0.00162505
0.0016781
0.00173033
0.00178175
0.00183237
0.00188219
0.00193121
0.00197944
0.00202688
0.00207352
0.00211939
0.00216447
0.00220876
0.00225228
0.00229501
0.00233697
0.00237816
0.00241857
0.00245821
0.00249708
0.00253518
0.00257251
0.00260908
0.00264488
0.00267993
0.00271421
0.00274774
0.00278051
0.00281253
0.0028438
0.00287432
0.0029041
0.00293313
0.00296143
0.00298899
0.00301581
0.00304191
0.00306728
0.00309193
0.00311586
0.00313907
0.00316158
0.00318337
0.00320447
0.00322486
0.00324456
0.00326357
0.0032819
0.00329954
0.00331651
0.00333281
0.00334845
0.00336342
0.00337774
0.00339141
0.00340444
0.00341683
0.00342858
0.00343971
0.00345021
0.0034601
0.00346939
0.00347806
0.00348615
0.00349364
0.00350054
0.00350687
0.00351262
0.00351781
0.00352244
0.00352652
0.00353005
0.00353305
0.00353551
0.00353744
0.00353886
0.00353976
0.00354016
0.00354006
0.00353947
0.00353839
0.00353684
0.00353481
0.00353232
0.00352937
0.00352598
0.00352214
0.00351787
0.00351316
0.00350804
0.0035025
0.00349655
0.0034902
0.00348346
0.00347633
0.00346883
0.00346095
0.0034527
0.0034441
0.00343514
0.00342584
0.0034162
0.00340623
0.00339594
0.00338533
0.00337441
0.00336318
0.00335166
0.00333985
0.00332775
0.00331538
0.00330273
0.00328983
0.00327666
0.00326325
0.00324959
0.00323569
0.00322156
0.00320721
0.00319264
0.00317785
0.00316286
0.00314767
0.00313228
0.00311671
0.00310095
0.00308502
0.00306892
0.00305266
0.00303624
0.00301966
0.00300295
0.00298609
0.00296909
0.00295197
0.00293473
0.00291737
0.0028999
0.00288233
0.00286466
0.00284689
0.00282904
0.0028111
0.00279309
0.00277501
0.00275687
0.00273867
0.00272042
0.00270212
0.00268378
0.00266541
0.00264702
0.0026286
0.00261017
0.00259173
0.00257328
0.00255485
0.00253642
0.00251802
0.00249964
0.00248129
0.00246298
0.00244472
0.00242651
0.00240836
0.00239029
0.00237229
0.00235438
0.00233655
0.00231884
0.00230123
0.00228373
0.00226637
0.00224914
0.00223205
0.00221512
0.00219835
0.00218175
0.00216534
0.00214911
0.00213308
0.00211726
0.00210166
0.00208629
0.00207115
0.00205627
0.00204163
0.00202727
0.00201318
0.00199938
0.00198587
0.00197266
0.00195976
0.00194718
0.00193494
0.00192303
0.00191146
0.00190025
0.00188939
0.0018789
0.00186878
0.00185904
0.00184969
0.00184072
0.00183214
0.00182397
0.00181619
0.00180882
0.00180185
0.0017953
0.00178915
0.00178342
0.00177809
0.00177319
0.00176869
0.00176461
0.00176094
0.00175768
0.00175484
0.0017524
0.00175037
0.00174875
0.00174753
0.00174673
0.00174632
0.00174632
0.00174673
0.00174753
0.00174875
0.00175037
0.0017524
0.00175484
0.00175768
0.00176094
0.00176461
0.00176869
0.00177319
0.00177809
0.00178342
0.00178915
0.0017953
0.00180185
0.00180882
0.00181619
0.00182397
0.00183215
0.00184072
0.00184969
0.00185904
0.00186878
0.0018789
0.00188939
0.00190025
0.00191146
0.00192303
0.00193494
0.00194719
0.00195976
0.00197266
0.00198587
0.00199938
0.00201318
0.00202727
0.00204164
0.00205627
0.00207116
0.00208629
0.00210167
0.00211727
0.00213309
0.00214911
0.00216534
0.00218176
0.00219836
0.00221513
0.00223206
0.00224914
0.00226637
0.00228374
0.00230123
0.00231884
0.00233656
0.00235438
0.00237229
0.00239029
0.00240837
0.00242651
0.00244472
0.00246298
0.00248129
0.00249964
0.00251802
0.00253643
0.00255485
0.00257329
0.00259173
0.00261017
0.0026286
0.00264702
0.00266542
0.00268379
0.00270212
0.00272042
0.00273867
0.00275687
0.00277501
0.00279309
0.0028111
0.00282903
0.00284689
0.00286465
0.00288232
0.0028999
0.00291737
0.00293473
0.00295197
0.00296909
0.00298608
0.00300294
0.00301966
0.00303623
0.00305265
0.00306891
0.00308501
0.00310094
0.0031167
0.00313227
0.00314766
0.00316285
0.00317784
0.00319263
0.0032072
0.00322155
0.00323568
0.00324958
0.00326324
0.00327665
0.00328982
0.00330273
0.00331537
0.00332774
0.00333984
0.00335165
0.00336318
0.0033744
0.00338532
0.00339593
0.00340623
0.0034162
0.00342584
0.00343514
0.00344409
0.0034527
0.00346094
0.00346882
0.00347633
0.00348346
0.0034902
0.00349655
0.0035025
0.00350804
0.00351316
0.00351787
0.00352214
0.00352598
0.00352937
0.00353232
0.00353481
0.00353684
0.00353839
0.00353947
0.00354006
0.00354016
0.00353976
0.00353886
0.00353744
0.00353551
0.00353305
0.00353006
0.00352652
0.00352245
0.00351782
0.00351263
0.00350687
0.00350054
0.00349364
0.00348615
0.00347807
0.00346939
0.00346011
0.00345022
0.00343971
0.00342858
0.00341683
0.00340444
0.00339141
0.00337774
0.00336342
0.00334845
0.00333282
0.00331652
0.00329955
0.0032819
0.00326357
0.00324456
0.00322486
0.00320447
0.00318337
0.00316158
0.00313908
0.00311586
0.00309193
0.00306728
0.00304191
0.00301581
0.00298899
0.00296143
0.00293313
0.0029041
0.00287432
0.0028438
0.00281253
0.00278051
0.00274774
0.00271421
0.00267993
0.00264488
0.00260908
0.00257251
0.00253518
0.00249708
0.00245821
0.00241857
0.00237816
0.00233697
0.00229501
0.00225228
0.00220876
0.00216447
0.00211939
0.00207352
0.00202688
0.00197944
0.00193121
0.00188219
0.00183237
0.00178175
0.00173033
0.0016781
0.00162505
0.00157119
0.00151649
0.00146097
0.0014046
0.00134738
0.0012893
0.00123034
0.00117049
0.00110972
0.00104804
0.000985396
0.000921778
0.000857153
0.000791485
0.000724736
0.000656861
0.000587808
0.000517526
0.000445961
0.000373083
0.000298923
0.000223731
0.000148529
7.77682e-05
3.2523e-05
)
;

boundaryField
{
    top_wall
    {
        type            nutLowReWallFunction;
        value           uniform 0;
    }
    inlet
    {
        type            cyclic;
    }
    bot_wall
    {
        type            nutLowReWallFunction;
        value           uniform 0;
    }
    outlet
    {
        type            cyclic;
    }
    frontAndBack
    {
        type            empty;
    }
}


// ************************************************************************* //
