/*--------------------------------*- C++ -*----------------------------------*\
| =========                 |                                                 |
| \\      /  F ield         | OpenFOAM: The Open Source CFD Toolbox           |
|  \\    /   O peration     | Version:  2312                                  |
|   \\  /    A nd           | Website:  www.openfoam.com                      |
|    \\/     M anipulation  |                                                 |
\*---------------------------------------------------------------------------*/
FoamFile
{
    version     2.0;
    format      ascii;
    arch        "LSB;label=32;scalar=64";
    class       volVectorField;
    location    "9.15";
    object      U;
}
// * * * * * * * * * * * * * * * * * * * * * * * * * * * * * * * * * * * * * //

dimensions      [0 1 -1 0 0 0 0];

internalField   nonuniform List<vector> 
500
(
(0.0983101 -6.62302e-18 0)
(0.191432 -1.07449e-17 0)
(0.251205 -1.04094e-17 0)
(0.292336 -1.02096e-17 0)
(0.323405 -1.02116e-17 0)
(0.348361 -1.02817e-17 0)
(0.369238 -1.03468e-17 0)
(0.387206 -1.03477e-17 0)
(0.402995 -1.03857e-17 0)
(0.417089 -1.04504e-17 0)
(0.429828 -1.04729e-17 0)
(0.441457 -1.04434e-17 0)
(0.452161 -1.03812e-17 0)
(0.462082 -1.04462e-17 0)
(0.47133 -1.05751e-17 0)
(0.479995 -1.06537e-17 0)
(0.488148 -1.06764e-17 0)
(0.49585 -1.06564e-17 0)
(0.503149 -1.06355e-17 0)
(0.510089 -1.06121e-17 0)
(0.516703 -1.05879e-17 0)
(0.523024 -1.05639e-17 0)
(0.529077 -1.05408e-17 0)
(0.534885 -1.05189e-17 0)
(0.540469 -1.04985e-17 0)
(0.545846 -1.04799e-17 0)
(0.551032 -1.0463e-17 0)
(0.556042 -1.04478e-17 0)
(0.560887 -1.04344e-17 0)
(0.565578 -1.04227e-17 0)
(0.570127 -1.04125e-17 0)
(0.574542 -1.04038e-17 0)
(0.578832 -1.03965e-17 0)
(0.583004 -1.03905e-17 0)
(0.587065 -1.03857e-17 0)
(0.591022 -1.0382e-17 0)
(0.594879 -1.03794e-17 0)
(0.598644 -1.03777e-17 0)
(0.60232 -1.0377e-17 0)
(0.605913 -1.0377e-17 0)
(0.609425 -1.03778e-17 0)
(0.612863 -1.03793e-17 0)
(0.616228 -1.03815e-17 0)
(0.619525 -1.03843e-17 0)
(0.622757 -1.03877e-17 0)
(0.625926 -1.03916e-17 0)
(0.629036 -1.03961e-17 0)
(0.632088 -1.04011e-17 0)
(0.635087 -1.04065e-17 0)
(0.638033 -1.04123e-17 0)
(0.640929 -1.04186e-17 0)
(0.643777 -1.04253e-17 0)
(0.646579 -1.04323e-17 0)
(0.649338 -1.04397e-17 0)
(0.652053 -1.04475e-17 0)
(0.654728 -1.04556e-17 0)
(0.657363 -1.0464e-17 0)
(0.659961 -1.04727e-17 0)
(0.662522 -1.04817e-17 0)
(0.665048 -1.0491e-17 0)
(0.66754 -1.05005e-17 0)
(0.67 -1.05103e-17 0)
(0.672428 -1.05203e-17 0)
(0.674825 -1.05305e-17 0)
(0.677193 -1.0541e-17 0)
(0.679533 -1.05516e-17 0)
(0.681845 -1.05624e-17 0)
(0.684131 -1.05734e-17 0)
(0.686391 -1.05846e-17 0)
(0.688626 -1.05958e-17 0)
(0.690837 -1.06072e-17 0)
(0.693024 -1.06188e-17 0)
(0.695189 -1.06304e-17 0)
(0.697332 -1.06421e-17 0)
(0.699453 -1.06539e-17 0)
(0.701554 -1.06658e-17 0)
(0.703635 -1.06777e-17 0)
(0.705696 -1.06896e-17 0)
(0.707738 -1.07016e-17 0)
(0.709762 -1.07136e-17 0)
(0.711769 -1.07255e-17 0)
(0.713757 -1.07375e-17 0)
(0.715729 -1.07494e-17 0)
(0.717685 -1.07612e-17 0)
(0.719624 -1.0773e-17 0)
(0.721548 -1.07847e-17 0)
(0.723457 -1.07963e-17 0)
(0.725351 -1.08078e-17 0)
(0.727231 -1.08192e-17 0)
(0.729097 -1.08304e-17 0)
(0.730949 -1.08415e-17 0)
(0.732787 -1.08524e-17 0)
(0.734613 -1.08631e-17 0)
(0.736426 -1.08736e-17 0)
(0.738227 -1.08839e-17 0)
(0.740016 -1.0894e-17 0)
(0.741793 -1.09038e-17 0)
(0.743558 -1.09133e-17 0)
(0.745312 -1.09226e-17 0)
(0.747056 -1.09315e-17 0)
(0.748788 -1.094e-17 0)
(0.75051 -1.09482e-17 0)
(0.752222 -1.0956e-17 0)
(0.753923 -1.09633e-17 0)
(0.755615 -1.09701e-17 0)
(0.757297 -1.09764e-17 0)
(0.75897 -1.09822e-17 0)
(0.760633 -1.09872e-17 0)
(0.762288 -1.09916e-17 0)
(0.763933 -1.09952e-17 0)
(0.76557 -1.09979e-17 0)
(0.767198 -1.09997e-17 0)
(0.768818 -1.10004e-17 0)
(0.770429 -1.09999e-17 0)
(0.772032 -1.09981e-17 0)
(0.773628 -1.09949e-17 0)
(0.775215 -1.099e-17 0)
(0.776795 -1.09832e-17 0)
(0.778367 -1.09744e-17 0)
(0.779931 -1.09645e-17 0)
(0.781488 -1.09533e-17 0)
(0.783038 -1.09395e-17 0)
(0.784581 -1.09229e-17 0)
(0.786116 -1.09044e-17 0)
(0.787645 -1.08837e-17 0)
(0.789166 -1.08605e-17 0)
(0.790681 -1.08346e-17 0)
(0.792189 -1.08057e-17 0)
(0.79369 -1.07736e-17 0)
(0.795185 -1.0738e-17 0)
(0.796673 -1.06987e-17 0)
(0.798155 -1.06558e-17 0)
(0.79963 -1.06094e-17 0)
(0.801098 -1.05598e-17 0)
(0.802561 -1.05088e-17 0)
(0.804017 -1.04562e-17 0)
(0.805467 -1.04035e-17 0)
(0.80691 -1.03514e-17 0)
(0.808347 -1.03061e-17 0)
(0.809779 -1.02185e-17 0)
(0.811204 -9.973e-18 0)
(0.812622 -9.72356e-18 0)
(0.814035 -9.62753e-18 0)
(0.815442 -9.56974e-18 0)
(0.816842 -9.50082e-18 0)
(0.818237 -9.42653e-18 0)
(0.819625 -9.34823e-18 0)
(0.821007 -9.26687e-18 0)
(0.822384 -9.18356e-18 0)
(0.823754 -9.099e-18 0)
(0.825117 -9.0136e-18 0)
(0.826475 -8.92756e-18 0)
(0.827827 -8.84087e-18 0)
(0.829172 -8.75407e-18 0)
(0.830512 -8.66694e-18 0)
(0.831845 -8.57924e-18 0)
(0.833171 -8.49071e-18 0)
(0.834492 -8.40106e-18 0)
(0.835806 -8.30997e-18 0)
(0.837113 -8.21709e-18 0)
(0.838415 -8.12197e-18 0)
(0.839709 -8.02406e-18 0)
(0.840998 -7.92264e-18 0)
(0.842279 -7.81679e-18 0)
(0.843554 -7.70598e-18 0)
(0.844822 -7.58863e-18 0)
(0.846084 -7.46272e-18 0)
(0.847338 -7.32559e-18 0)
(0.848585 -7.17524e-18 0)
(0.849826 -7.00026e-18 0)
(0.851059 -6.90118e-18 0)
(0.852285 -7.16954e-18 0)
(0.853504 -7.44286e-18 0)
(0.854715 -7.35074e-18 0)
(0.855919 -7.18383e-18 0)
(0.857115 -7.04221e-18 0)
(0.858304 -6.91514e-18 0)
(0.859484 -6.80086e-18 0)
(0.860657 -6.69687e-18 0)
(0.861821 -6.60132e-18 0)
(0.862978 -6.51289e-18 0)
(0.864126 -6.43062e-18 0)
(0.865265 -6.35388e-18 0)
(0.866396 -6.28223e-18 0)
(0.867518 -6.21542e-18 0)
(0.86863 -6.15329e-18 0)
(0.869734 -6.09581e-18 0)
(0.870829 -6.04305e-18 0)
(0.871914 -5.99516e-18 0)
(0.872989 -5.95229e-18 0)
(0.874055 -5.91464e-18 0)
(0.87511 -5.88235e-18 0)
(0.876155 -5.85554e-18 0)
(0.87719 -5.83422e-18 0)
(0.878214 -5.81745e-18 0)
(0.879228 -5.80496e-18 0)
(0.88023 -5.79664e-18 0)
(0.881221 -5.79159e-18 0)
(0.882201 -5.7885e-18 0)
(0.883169 -5.78602e-18 0)
(0.884124 -5.78322e-18 0)
(0.885068 -5.77355e-18 0)
(0.885999 -5.80645e-18 0)
(0.886917 -5.72711e-18 0)
(0.887822 -5.64918e-18 0)
(0.888714 -5.68961e-18 0)
(0.889593 -5.69074e-18 0)
(0.890457 -5.70202e-18 0)
(0.891308 -5.71678e-18 0)
(0.892143 -5.73365e-18 0)
(0.892965 -5.7512e-18 0)
(0.893771 -5.76848e-18 0)
(0.894561 -5.78445e-18 0)
(0.895336 -5.79842e-18 0)
(0.896095 -5.80995e-18 0)
(0.896838 -5.81883e-18 0)
(0.897564 -5.82498e-18 0)
(0.898274 -5.82793e-18 0)
(0.898966 -5.82778e-18 0)
(0.89964 -5.82468e-18 0)
(0.900296 -5.81875e-18 0)
(0.900935 -5.81017e-18 0)
(0.901554 -5.79908e-18 0)
(0.902155 -5.78539e-18 0)
(0.902737 -5.76927e-18 0)
(0.903299 -5.75088e-18 0)
(0.903841 -5.73037e-18 0)
(0.904363 -5.70764e-18 0)
(0.904865 -5.68283e-18 0)
(0.905347 -5.65608e-18 0)
(0.905807 -5.62752e-18 0)
(0.906246 -5.59728e-18 0)
(0.906664 -5.56546e-18 0)
(0.907059 -5.53219e-18 0)
(0.907433 -5.49731e-18 0)
(0.907785 -5.46092e-18 0)
(0.908114 -5.42308e-18 0)
(0.908421 -5.38402e-18 0)
(0.908704 -5.34384e-18 0)
(0.908965 -5.30247e-18 0)
(0.909203 -5.26002e-18 0)
(0.909417 -5.21656e-18 0)
(0.909608 -5.17221e-18 0)
(0.909775 -5.12703e-18 0)
(0.909919 -5.08104e-18 0)
(0.910038 -5.03432e-18 0)
(0.910134 -4.98695e-18 0)
(0.910206 -4.939e-18 0)
(0.910254 -4.89052e-18 0)
(0.910278 -4.84153e-18 0)
(0.910278 -4.7921e-18 0)
(0.910254 -4.74229e-18 0)
(0.910206 -4.69215e-18 0)
(0.910134 -4.64174e-18 0)
(0.910038 -4.5911e-18 0)
(0.909919 -4.54027e-18 0)
(0.909775 -4.48932e-18 0)
(0.909608 -4.4383e-18 0)
(0.909417 -4.38719e-18 0)
(0.909203 -4.33603e-18 0)
(0.908965 -4.28488e-18 0)
(0.908704 -4.23376e-18 0)
(0.908421 -4.18274e-18 0)
(0.908114 -4.13183e-18 0)
(0.907785 -4.08109e-18 0)
(0.907433 -4.03053e-18 0)
(0.907059 -3.9802e-18 0)
(0.906663 -3.93013e-18 0)
(0.906246 -3.88033e-18 0)
(0.905807 -3.83084e-18 0)
(0.905347 -3.78168e-18 0)
(0.904865 -3.73287e-18 0)
(0.904363 -3.68443e-18 0)
(0.903841 -3.63638e-18 0)
(0.903299 -3.58873e-18 0)
(0.902737 -3.5415e-18 0)
(0.902155 -3.49471e-18 0)
(0.901554 -3.44836e-18 0)
(0.900935 -3.40247e-18 0)
(0.900296 -3.35704e-18 0)
(0.89964 -3.31208e-18 0)
(0.898965 -3.26761e-18 0)
(0.898274 -3.22361e-18 0)
(0.897564 -3.18011e-18 0)
(0.896838 -3.1371e-18 0)
(0.896095 -3.09458e-18 0)
(0.895336 -3.05256e-18 0)
(0.894561 -3.01103e-18 0)
(0.893771 -2.97001e-18 0)
(0.892965 -2.92948e-18 0)
(0.892143 -2.88944e-18 0)
(0.891308 -2.8499e-18 0)
(0.890457 -2.81085e-18 0)
(0.889593 -2.77229e-18 0)
(0.888714 -2.73422e-18 0)
(0.887822 -2.69662e-18 0)
(0.886917 -2.65951e-18 0)
(0.885999 -2.62286e-18 0)
(0.885068 -2.58669e-18 0)
(0.884124 -2.55098e-18 0)
(0.883169 -2.51573e-18 0)
(0.882201 -2.48094e-18 0)
(0.881221 -2.44659e-18 0)
(0.88023 -2.41269e-18 0)
(0.879228 -2.37923e-18 0)
(0.878214 -2.3462e-18 0)
(0.87719 -2.31359e-18 0)
(0.876155 -2.28141e-18 0)
(0.87511 -2.24965e-18 0)
(0.874055 -2.21829e-18 0)
(0.872989 -2.18735e-18 0)
(0.871914 -2.1568e-18 0)
(0.870829 -2.12664e-18 0)
(0.869734 -2.09688e-18 0)
(0.86863 -2.06749e-18 0)
(0.867518 -2.03849e-18 0)
(0.866396 -2.00985e-18 0)
(0.865265 -1.98159e-18 0)
(0.864126 -1.95369e-18 0)
(0.862978 -1.92614e-18 0)
(0.861822 -1.89894e-18 0)
(0.860657 -1.8721e-18 0)
(0.859484 -1.84559e-18 0)
(0.858304 -1.81942e-18 0)
(0.857115 -1.79359e-18 0)
(0.855919 -1.76808e-18 0)
(0.854715 -1.74289e-18 0)
(0.853504 -1.71803e-18 0)
(0.852285 -1.69347e-18 0)
(0.851059 -1.66923e-18 0)
(0.849826 -1.64529e-18 0)
(0.848586 -1.62166e-18 0)
(0.847338 -1.59832e-18 0)
(0.846084 -1.57527e-18 0)
(0.844822 -1.55251e-18 0)
(0.843554 -1.53004e-18 0)
(0.842279 -1.50785e-18 0)
(0.840998 -1.48593e-18 0)
(0.839709 -1.46429e-18 0)
(0.838415 -1.44292e-18 0)
(0.837113 -1.42182e-18 0)
(0.835806 -1.40097e-18 0)
(0.834492 -1.38039e-18 0)
(0.833171 -1.36007e-18 0)
(0.831845 -1.33999e-18 0)
(0.830512 -1.32017e-18 0)
(0.829172 -1.30059e-18 0)
(0.827827 -1.28125e-18 0)
(0.826475 -1.26216e-18 0)
(0.825117 -1.2433e-18 0)
(0.823754 -1.22467e-18 0)
(0.822383 -1.20628e-18 0)
(0.821007 -1.18811e-18 0)
(0.819625 -1.17017e-18 0)
(0.818237 -1.15245e-18 0)
(0.816842 -1.13495e-18 0)
(0.815442 -1.11767e-18 0)
(0.814035 -1.1006e-18 0)
(0.812622 -1.08375e-18 0)
(0.811204 -1.0671e-18 0)
(0.809779 -1.05066e-18 0)
(0.808347 -1.03442e-18 0)
(0.80691 -1.01838e-18 0)
(0.805467 -1.00255e-18 0)
(0.804017 -9.86907e-19 0)
(0.802561 -9.71462e-19 0)
(0.801098 -9.56209e-19 0)
(0.79963 -9.41146e-19 0)
(0.798155 -9.26271e-19 0)
(0.796673 -9.11582e-19 0)
(0.795185 -8.97076e-19 0)
(0.79369 -8.82752e-19 0)
(0.792189 -8.68608e-19 0)
(0.790681 -8.54641e-19 0)
(0.789166 -8.40849e-19 0)
(0.787645 -8.27231e-19 0)
(0.786116 -8.13784e-19 0)
(0.784581 -8.00508e-19 0)
(0.783038 -7.87399e-19 0)
(0.781488 -7.74456e-19 0)
(0.779931 -7.61677e-19 0)
(0.778367 -7.49061e-19 0)
(0.776795 -7.36605e-19 0)
(0.775215 -7.24308e-19 0)
(0.773627 -7.12169e-19 0)
(0.772032 -7.00185e-19 0)
(0.770429 -6.88355e-19 0)
(0.768818 -6.76678e-19 0)
(0.767198 -6.65151e-19 0)
(0.76557 -6.53774e-19 0)
(0.763933 -6.42544e-19 0)
(0.762288 -6.3146e-19 0)
(0.760633 -6.20521e-19 0)
(0.75897 -6.09726e-19 0)
(0.757297 -5.99072e-19 0)
(0.755615 -5.88558e-19 0)
(0.753923 -5.78183e-19 0)
(0.752222 -5.67946e-19 0)
(0.75051 -5.57844e-19 0)
(0.748788 -5.47878e-19 0)
(0.747056 -5.38045e-19 0)
(0.745312 -5.28344e-19 0)
(0.743558 -5.18774e-19 0)
(0.741793 -5.09334e-19 0)
(0.740016 -5.00021e-19 0)
(0.738227 -4.90836e-19 0)
(0.736426 -4.81777e-19 0)
(0.734613 -4.72842e-19 0)
(0.732787 -4.64031e-19 0)
(0.730948 -4.55342e-19 0)
(0.729096 -4.46774e-19 0)
(0.727231 -4.38326e-19 0)
(0.725351 -4.29997e-19 0)
(0.723457 -4.21786e-19 0)
(0.721548 -4.13691e-19 0)
(0.719624 -4.05712e-19 0)
(0.717685 -3.97847e-19 0)
(0.715729 -3.90095e-19 0)
(0.713757 -3.82456e-19 0)
(0.711768 -3.74928e-19 0)
(0.709762 -3.6751e-19 0)
(0.707738 -3.60201e-19 0)
(0.705696 -3.53001e-19 0)
(0.703635 -3.45908e-19 0)
(0.701554 -3.3892e-19 0)
(0.699453 -3.32039e-19 0)
(0.697331 -3.25261e-19 0)
(0.695189 -3.18586e-19 0)
(0.693024 -3.12014e-19 0)
(0.690836 -3.05543e-19 0)
(0.688626 -2.99173e-19 0)
(0.686391 -2.92902e-19 0)
(0.684131 -2.8673e-19 0)
(0.681845 -2.80655e-19 0)
(0.679533 -2.74676e-19 0)
(0.677193 -2.68794e-19 0)
(0.674825 -2.63006e-19 0)
(0.672428 -2.57313e-19 0)
(0.67 -2.51712e-19 0)
(0.66754 -2.46204e-19 0)
(0.665048 -2.40786e-19 0)
(0.662522 -2.35459e-19 0)
(0.659961 -2.30222e-19 0)
(0.657363 -2.25073e-19 0)
(0.654728 -2.20012e-19 0)
(0.652053 -2.15037e-19 0)
(0.649337 -2.10149e-19 0)
(0.646579 -2.05345e-19 0)
(0.643777 -2.00626e-19 0)
(0.640929 -1.9599e-19 0)
(0.638033 -1.91436e-19 0)
(0.635087 -1.86964e-19 0)
(0.632088 -1.82572e-19 0)
(0.629035 -1.78261e-19 0)
(0.625926 -1.74029e-19 0)
(0.622756 -1.69874e-19 0)
(0.619525 -1.65797e-19 0)
(0.616228 -1.61797e-19 0)
(0.612863 -1.57872e-19 0)
(0.609425 -1.54022e-19 0)
(0.605912 -1.50246e-19 0)
(0.60232 -1.46543e-19 0)
(0.598644 -1.42913e-19 0)
(0.594879 -1.39354e-19 0)
(0.591022 -1.35866e-19 0)
(0.587065 -1.32447e-19 0)
(0.583004 -1.29098e-19 0)
(0.578832 -1.25816e-19 0)
(0.574542 -1.22602e-19 0)
(0.570127 -1.19453e-19 0)
(0.565578 -1.1637e-19 0)
(0.560887 -1.1335e-19 0)
(0.556042 -1.10393e-19 0)
(0.551032 -1.07496e-19 0)
(0.545846 -1.0466e-19 0)
(0.540469 -1.01881e-19 0)
(0.534885 -9.91572e-20 0)
(0.529077 -9.64872e-20 0)
(0.523024 -9.38678e-20 0)
(0.516703 -9.12958e-20 0)
(0.510089 -8.87677e-20 0)
(0.503149 -8.62791e-20 0)
(0.49585 -8.38247e-20 0)
(0.488148 -8.13985e-20 0)
(0.479995 -7.89929e-20 0)
(0.47133 -7.65991e-20 0)
(0.462082 -7.42058e-20 0)
(0.452161 -7.17995e-20 0)
(0.441457 -6.93631e-20 0)
(0.429828 -6.68745e-20 0)
(0.417089 -6.43054e-20 0)
(0.402995 -6.1618e-20 0)
(0.387206 -5.87602e-20 0)
(0.369238 -5.56583e-20 0)
(0.348361 -5.22018e-20 0)
(0.323405 -4.82148e-20 0)
(0.292336 -4.33935e-20 0)
(0.251205 -3.71514e-20 0)
(0.191432 -2.82213e-20 0)
(0.0983101 -1.44479e-20 0)
)
;

boundaryField
{
    top_wall
    {
        type            noSlip;
    }
    inlet
    {
        type            cyclic;
    }
    bot_wall
    {
        type            noSlip;
    }
    outlet
    {
        type            cyclic;
    }
    frontAndBack
    {
        type            empty;
    }
}


// ************************************************************************* //
