/*--------------------------------*- C++ -*----------------------------------*\
| =========                 |                                                 |
| \\      /  F ield         | OpenFOAM: The Open Source CFD Toolbox           |
|  \\    /   O peration     | Version:  2312                                  |
|   \\  /    A nd           | Website:  www.openfoam.com                      |
|    \\/     M anipulation  |                                                 |
\*---------------------------------------------------------------------------*/
FoamFile
{
    version     2.0;
    format      ascii;
    arch        "LSB;label=32;scalar=64";
    class       volVectorField;
    location    "100";
    object      U;
}
// * * * * * * * * * * * * * * * * * * * * * * * * * * * * * * * * * * * * * //

dimensions      [0 1 -1 0 0 0 0];

internalField   nonuniform List<vector> 
1000
(
(0.360008 -4.46059e-17 0)
(1.07858 -9.76677e-17 0)
(1.79572 -9.56586e-17 0)
(2.51141 -9.03233e-17 0)
(3.22567 -8.91499e-17 0)
(3.93848 -8.9471e-17 0)
(4.64986 -8.97102e-17 0)
(5.35979 -8.9747e-17 0)
(6.06829 -8.97179e-17 0)
(6.77534 -8.96916e-17 0)
(7.48096 -8.9672e-17 0)
(8.18513 -8.96442e-17 0)
(8.88787 -8.96405e-17 0)
(9.58916 -8.96707e-17 0)
(10.289 -8.96953e-17 0)
(10.9874 -8.97108e-17 0)
(11.6844 -8.97161e-17 0)
(12.3799 -8.97162e-17 0)
(13.074 -8.97161e-17 0)
(13.7667 -8.97249e-17 0)
(14.4579 -8.97653e-17 0)
(15.1477 -8.98094e-17 0)
(15.836 -8.98438e-17 0)
(16.5229 -8.98102e-17 0)
(17.2084 -8.97792e-17 0)
(17.8924 -8.98142e-17 0)
(18.5749 -8.98284e-17 0)
(19.2561 -8.98522e-17 0)
(19.9358 -8.98317e-17 0)
(20.614 -8.98112e-17 0)
(21.2908 -8.98218e-17 0)
(21.9662 -8.98264e-17 0)
(22.6401 -8.99532e-17 0)
(23.3126 -9.00904e-17 0)
(23.9837 -9.01058e-17 0)
(24.6533 -9.00984e-17 0)
(25.3215 -9.01057e-17 0)
(25.9882 -9.00506e-17 0)
(26.6535 -8.99782e-17 0)
(27.3174 -8.99541e-17 0)
(27.9798 -8.99078e-17 0)
(28.6407 -8.98606e-17 0)
(29.3003 -8.98129e-17 0)
(29.9584 -8.9765e-17 0)
(30.615 -8.97175e-17 0)
(31.2702 -8.96707e-17 0)
(31.924 -8.9625e-17 0)
(32.5763 -8.95805e-17 0)
(33.2272 -8.95374e-17 0)
(33.8767 -8.94957e-17 0)
(34.5247 -8.94555e-17 0)
(35.1713 -8.94167e-17 0)
(35.8164 -8.93791e-17 0)
(36.4601 -8.93429e-17 0)
(37.1023 -8.93077e-17 0)
(37.7432 -8.92737e-17 0)
(38.3825 -8.92406e-17 0)
(39.0205 -8.92083e-17 0)
(39.6569 -8.91769e-17 0)
(40.292 -8.91461e-17 0)
(40.9256 -8.9116e-17 0)
(41.5578 -8.90865e-17 0)
(42.1885 -8.90575e-17 0)
(42.8178 -8.90289e-17 0)
(43.4457 -8.90008e-17 0)
(44.0721 -8.8973e-17 0)
(44.697 -8.89456e-17 0)
(45.3206 -8.89186e-17 0)
(45.9427 -8.88918e-17 0)
(46.5633 -8.88654e-17 0)
(47.1825 -8.88393e-17 0)
(47.8003 -8.88134e-17 0)
(48.4166 -8.87878e-17 0)
(49.0315 -8.87625e-17 0)
(49.645 -8.87375e-17 0)
(50.257 -8.87127e-17 0)
(50.8675 -8.86882e-17 0)
(51.4767 -8.8664e-17 0)
(52.0843 -8.86401e-17 0)
(52.6906 -8.86165e-17 0)
(53.2954 -8.85932e-17 0)
(53.8988 -8.85701e-17 0)
(54.5007 -8.85474e-17 0)
(55.1012 -8.8525e-17 0)
(55.7002 -8.8503e-17 0)
(56.2978 -8.84812e-17 0)
(56.894 -8.84598e-17 0)
(57.4887 -8.84388e-17 0)
(58.082 -8.8418e-17 0)
(58.6739 -8.83975e-17 0)
(59.2643 -8.83773e-17 0)
(59.8533 -8.83572e-17 0)
(60.4408 -8.83373e-17 0)
(61.0269 -8.83173e-17 0)
(61.6115 -8.82972e-17 0)
(62.1947 -8.82766e-17 0)
(62.7765 -8.82555e-17 0)
(63.3568 -8.82334e-17 0)
(63.9357 -8.82101e-17 0)
(64.5131 -8.81853e-17 0)
(65.0892 -8.81585e-17 0)
(65.6637 -8.81296e-17 0)
(66.2368 -8.81022e-17 0)
(66.8085 -8.8077e-17 0)
(67.3788 -8.80558e-17 0)
(67.9476 -8.80417e-17 0)
(68.5149 -8.80463e-17 0)
(69.0809 -8.794e-17 0)
(69.6454 -8.75862e-17 0)
(70.2084 -8.72309e-17 0)
(70.77 -8.71275e-17 0)
(71.3302 -8.71352e-17 0)
(71.8889 -8.71008e-17 0)
(72.4462 -8.7037e-17 0)
(73.002 -8.69689e-17 0)
(73.5564 -8.68953e-17 0)
(74.1094 -8.68175e-17 0)
(74.6609 -8.67373e-17 0)
(75.211 -8.66577e-17 0)
(75.7596 -8.64949e-17 0)
(76.3069 -8.62709e-17 0)
(76.8526 -8.60536e-17 0)
(77.3969 -8.59138e-17 0)
(77.9398 -8.58738e-17 0)
(78.4813 -8.58244e-17 0)
(79.0213 -8.57462e-17 0)
(79.5598 -8.5661e-17 0)
(80.097 -8.55893e-17 0)
(80.6326 -8.55287e-17 0)
(81.1669 -8.54731e-17 0)
(81.6997 -8.54264e-17 0)
(82.231 -8.52544e-17 0)
(82.761 -8.50499e-17 0)
(83.2894 -8.48565e-17 0)
(83.8165 -8.47467e-17 0)
(84.3421 -8.48248e-17 0)
(84.8662 -8.47739e-17 0)
(85.389 -8.44256e-17 0)
(85.9102 -8.40743e-17 0)
(86.4301 -8.40256e-17 0)
(86.9485 -8.41139e-17 0)
(87.4655 -8.40159e-17 0)
(87.981 -8.38637e-17 0)
(88.4951 -8.36884e-17 0)
(89.0077 -8.35002e-17 0)
(89.5189 -8.34199e-17 0)
(90.0287 -8.331e-17 0)
(90.537 -8.32134e-17 0)
(91.0439 -8.30671e-17 0)
(91.5493 -8.32855e-17 0)
(92.0533 -8.35371e-17 0)
(92.5558 -8.349e-17 0)
(93.057 -8.3541e-17 0)
(93.5566 -8.35803e-17 0)
(94.0549 -8.36203e-17 0)
(94.5517 -8.36698e-17 0)
(95.047 -8.37205e-17 0)
(95.541 -8.36226e-17 0)
(96.0334 -8.32188e-17 0)
(96.5245 -8.26814e-17 0)
(97.0141 -8.20673e-17 0)
(97.5022 -8.14922e-17 0)
(97.9889 -8.07513e-17 0)
(98.4742 -8.01631e-17 0)
(98.9581 -8.00088e-17 0)
(99.4405 -7.98587e-17 0)
(99.9214 -7.95221e-17 0)
(100.401 -7.97003e-17 0)
(100.879 -8.00588e-17 0)
(101.356 -7.98851e-17 0)
(101.831 -7.94168e-17 0)
(102.305 -7.88122e-17 0)
(102.777 -7.85084e-17 0)
(103.248 -7.82973e-17 0)
(103.717 -7.81096e-17 0)
(104.185 -7.80014e-17 0)
(104.652 -7.77192e-17 0)
(105.117 -7.74066e-17 0)
(105.581 -7.70894e-17 0)
(106.043 -7.6384e-17 0)
(106.504 -7.58061e-17 0)
(106.963 -7.55433e-17 0)
(107.421 -7.52389e-17 0)
(107.877 -7.48211e-17 0)
(108.332 -7.45007e-17 0)
(108.786 -7.43883e-17 0)
(109.238 -7.42961e-17 0)
(109.689 -7.41986e-17 0)
(110.138 -7.3958e-17 0)
(110.586 -7.3782e-17 0)
(111.032 -7.35783e-17 0)
(111.477 -7.32546e-17 0)
(111.921 -7.29613e-17 0)
(112.363 -7.25999e-17 0)
(112.804 -7.21842e-17 0)
(113.243 -7.15684e-17 0)
(113.68 -7.09799e-17 0)
(114.117 -7.0578e-17 0)
(114.552 -7.02026e-17 0)
(114.985 -6.98499e-17 0)
(115.417 -6.9379e-17 0)
(115.848 -6.85674e-17 0)
(116.277 -6.79488e-17 0)
(116.704 -6.77516e-17 0)
(117.131 -6.74936e-17 0)
(117.555 -6.70452e-17 0)
(117.979 -6.66114e-17 0)
(118.401 -6.62071e-17 0)
(118.821 -6.58175e-17 0)
(119.24 -6.54502e-17 0)
(119.658 -6.48964e-17 0)
(120.074 -6.4194e-17 0)
(120.489 -6.35669e-17 0)
(120.902 -6.31847e-17 0)
(121.314 -6.29889e-17 0)
(121.724 -6.28327e-17 0)
(122.133 -6.25734e-17 0)
(122.541 -6.21351e-17 0)
(122.947 -6.17119e-17 0)
(123.351 -6.14867e-17 0)
(123.754 -6.13761e-17 0)
(124.156 -6.12124e-17 0)
(124.557 -6.08744e-17 0)
(124.955 -6.05352e-17 0)
(125.353 -6.01428e-17 0)
(125.749 -5.96527e-17 0)
(126.143 -5.93016e-17 0)
(126.536 -5.90693e-17 0)
(126.928 -5.8744e-17 0)
(127.318 -5.8161e-17 0)
(127.707 -5.75113e-17 0)
(128.095 -5.70302e-17 0)
(128.48 -5.66089e-17 0)
(128.865 -5.59877e-17 0)
(129.248 -5.51484e-17 0)
(129.629 -5.43733e-17 0)
(130.01 -5.38976e-17 0)
(130.388 -5.3616e-17 0)
(130.766 -5.31707e-17 0)
(131.141 -5.25031e-17 0)
(131.516 -5.18654e-17 0)
(131.889 -5.12423e-17 0)
(132.26 -5.05679e-17 0)
(132.63 -5.00908e-17 0)
(132.999 -4.98099e-17 0)
(133.366 -4.93569e-17 0)
(133.732 -4.86875e-17 0)
(134.096 -4.78552e-17 0)
(134.459 -4.68994e-17 0)
(134.821 -4.6075e-17 0)
(135.18 -4.54442e-17 0)
(135.539 -4.477e-17 0)
(135.896 -4.37816e-17 0)
(136.252 -4.27365e-17 0)
(136.606 -4.17505e-17 0)
(136.959 -4.11597e-17 0)
(137.31 -4.11323e-17 0)
(137.66 -4.06953e-17 0)
(138.009 -3.95664e-17 0)
(138.356 -3.85925e-17 0)
(138.701 -3.8476e-17 0)
(139.045 -3.8848e-17 0)
(139.388 -3.88275e-17 0)
(139.729 -3.81506e-17 0)
(140.069 -3.74272e-17 0)
(140.407 -3.73727e-17 0)
(140.744 -3.77248e-17 0)
(141.08 -3.75187e-17 0)
(141.414 -3.64667e-17 0)
(141.747 -3.53813e-17 0)
(142.078 -3.48208e-17 0)
(142.408 -3.44925e-17 0)
(142.736 -3.41411e-17 0)
(143.063 -3.29706e-17 0)
(143.388 -3.19156e-17 0)
(143.712 -3.15853e-17 0)
(144.035 -3.11191e-17 0)
(144.356 -3.08495e-17 0)
(144.675 -3.07192e-17 0)
(144.994 -3.03135e-17 0)
(145.31 -2.96171e-17 0)
(145.626 -2.88954e-17 0)
(145.94 -2.83886e-17 0)
(146.252 -2.80621e-17 0)
(146.563 -2.74819e-17 0)
(146.873 -2.66921e-17 0)
(147.181 -2.58866e-17 0)
(147.488 -2.50366e-17 0)
(147.793 -2.36301e-17 0)
(148.097 -2.25106e-17 0)
(148.399 -2.21986e-17 0)
(148.7 -2.10027e-17 0)
(149 -1.9485e-17 0)
(149.298 -1.85345e-17 0)
(149.594 -1.79106e-17 0)
(149.889 -1.75967e-17 0)
(150.183 -1.65196e-17 0)
(150.475 -1.52183e-17 0)
(150.766 -1.44779e-17 0)
(151.056 -1.37746e-17 0)
(151.344 -1.31331e-17 0)
(151.63 -1.27945e-17 0)
(151.915 -1.27675e-17 0)
(152.199 -1.28505e-17 0)
(152.481 -1.2547e-17 0)
(152.762 -1.11905e-17 0)
(153.041 -1.00714e-17 0)
(153.319 -9.80198e-18 0)
(153.596 -9.16492e-18 0)
(153.871 -8.09126e-18 0)
(154.144 -6.73848e-18 0)
(154.416 -5.56706e-18 0)
(154.687 -4.97813e-18 0)
(154.956 -4.80291e-18 0)
(155.224 -4.81508e-18 0)
(155.491 -4.74163e-18 0)
(155.756 -4.64139e-18 0)
(156.019 -4.55497e-18 0)
(156.281 -4.47663e-18 0)
(156.542 -4.40516e-18 0)
(156.801 -4.33864e-18 0)
(157.059 -4.27431e-18 0)
(157.315 -4.21158e-18 0)
(157.57 -4.15024e-18 0)
(157.823 -4.0903e-18 0)
(158.075 -4.03177e-18 0)
(158.326 -3.97481e-18 0)
(158.575 -3.91958e-18 0)
(158.823 -3.86627e-18 0)
(159.069 -3.81501e-18 0)
(159.314 -3.76598e-18 0)
(159.557 -3.71932e-18 0)
(159.799 -3.67354e-18 0)
(160.039 -3.62863e-18 0)
(160.278 -3.58613e-18 0)
(160.516 -3.54582e-18 0)
(160.752 -3.50747e-18 0)
(160.987 -3.47085e-18 0)
(161.22 -3.43573e-18 0)
(161.452 -3.40191e-18 0)
(161.682 -3.36919e-18 0)
(161.911 -3.33739e-18 0)
(162.139 -3.30636e-18 0)
(162.365 -3.27597e-18 0)
(162.589 -3.24611e-18 0)
(162.813 -3.21668e-18 0)
(163.034 -3.1876e-18 0)
(163.255 -3.15882e-18 0)
(163.473 -3.1303e-18 0)
(163.691 -3.10198e-18 0)
(163.907 -3.07386e-18 0)
(164.121 -3.04591e-18 0)
(164.334 -3.01813e-18 0)
(164.546 -2.9905e-18 0)
(164.756 -2.96302e-18 0)
(164.965 -2.9357e-18 0)
(165.173 -2.90854e-18 0)
(165.378 -2.88153e-18 0)
(165.583 -2.85468e-18 0)
(165.786 -2.82799e-18 0)
(165.987 -2.80147e-18 0)
(166.188 -2.77511e-18 0)
(166.386 -2.74891e-18 0)
(166.584 -2.72288e-18 0)
(166.779 -2.697e-18 0)
(166.974 -2.67128e-18 0)
(167.167 -2.64571e-18 0)
(167.358 -2.62028e-18 0)
(167.548 -2.59499e-18 0)
(167.737 -2.56983e-18 0)
(167.924 -2.5448e-18 0)
(168.11 -2.51988e-18 0)
(168.294 -2.49507e-18 0)
(168.477 -2.47035e-18 0)
(168.658 -2.44572e-18 0)
(168.838 -2.42117e-18 0)
(169.017 -2.39669e-18 0)
(169.194 -2.37228e-18 0)
(169.37 -2.34792e-18 0)
(169.544 -2.3236e-18 0)
(169.717 -2.29933e-18 0)
(169.888 -2.27509e-18 0)
(170.058 -2.25087e-18 0)
(170.226 -2.22667e-18 0)
(170.393 -2.20249e-18 0)
(170.559 -2.17831e-18 0)
(170.723 -2.15414e-18 0)
(170.886 -2.12997e-18 0)
(171.047 -2.1058e-18 0)
(171.207 -2.08162e-18 0)
(171.365 -2.05744e-18 0)
(171.522 -2.03324e-18 0)
(171.678 -2.00904e-18 0)
(171.832 -1.98482e-18 0)
(171.985 -1.96059e-18 0)
(172.136 -1.93635e-18 0)
(172.285 -1.91209e-18 0)
(172.434 -1.88783e-18 0)
(172.581 -1.86355e-18 0)
(172.726 -1.83926e-18 0)
(172.87 -1.81496e-18 0)
(173.013 -1.79066e-18 0)
(173.154 -1.76635e-18 0)
(173.293 -1.74204e-18 0)
(173.432 -1.71772e-18 0)
(173.568 -1.69341e-18 0)
(173.704 -1.6691e-18 0)
(173.838 -1.64479e-18 0)
(173.97 -1.6205e-18 0)
(174.101 -1.59621e-18 0)
(174.231 -1.57194e-18 0)
(174.359 -1.54768e-18 0)
(174.486 -1.52344e-18 0)
(174.611 -1.49923e-18 0)
(174.735 -1.47503e-18 0)
(174.857 -1.45087e-18 0)
(174.978 -1.42673e-18 0)
(175.098 -1.40263e-18 0)
(175.216 -1.37856e-18 0)
(175.332 -1.35452e-18 0)
(175.447 -1.33053e-18 0)
(175.561 -1.30657e-18 0)
(175.673 -1.28266e-18 0)
(175.784 -1.2588e-18 0)
(175.894 -1.23498e-18 0)
(176.002 -1.21121e-18 0)
(176.108 -1.1875e-18 0)
(176.213 -1.16383e-18 0)
(176.317 -1.14023e-18 0)
(176.419 -1.11668e-18 0)
(176.52 -1.09318e-18 0)
(176.619 -1.06975e-18 0)
(176.717 -1.04638e-18 0)
(176.814 -1.02306e-18 0)
(176.909 -9.99816e-19 0)
(177.002 -9.76632e-19 0)
(177.095 -9.53512e-19 0)
(177.185 -9.30458e-19 0)
(177.275 -9.0747e-19 0)
(177.362 -8.8455e-19 0)
(177.449 -8.61696e-19 0)
(177.534 -8.3891e-19 0)
(177.617 -8.16192e-19 0)
(177.699 -7.93543e-19 0)
(177.78 -7.70962e-19 0)
(177.859 -7.4845e-19 0)
(177.937 -7.26006e-19 0)
(178.013 -7.0363e-19 0)
(178.088 -6.81323e-19 0)
(178.162 -6.59084e-19 0)
(178.234 -6.36913e-19 0)
(178.304 -6.14809e-19 0)
(178.373 -5.92772e-19 0)
(178.441 -5.70802e-19 0)
(178.507 -5.48898e-19 0)
(178.572 -5.27059e-19 0)
(178.635 -5.05285e-19 0)
(178.697 -4.83575e-19 0)
(178.758 -4.61928e-19 0)
(178.817 -4.40344e-19 0)
(178.874 -4.18822e-19 0)
(178.93 -3.97361e-19 0)
(178.985 -3.7596e-19 0)
(179.038 -3.54617e-19 0)
(179.09 -3.33334e-19 0)
(179.141 -3.12107e-19 0)
(179.19 -2.90936e-19 0)
(179.237 -2.69821e-19 0)
(179.283 -2.4876e-19 0)
(179.328 -2.27751e-19 0)
(179.371 -2.06795e-19 0)
(179.413 -1.8589e-19 0)
(179.453 -1.65034e-19 0)
(179.492 -1.44227e-19 0)
(179.529 -1.23468e-19 0)
(179.565 -1.02755e-19 0)
(179.6 -8.20871e-20 0)
(179.633 -6.14634e-20 0)
(179.665 -4.08826e-20 0)
(179.695 -2.03436e-20 0)
(179.724 1.54791e-22 0)
(179.751 2.06137e-20 0)
(179.777 4.10344e-20 0)
(179.802 6.14179e-20 0)
(179.825 8.17654e-20 0)
(179.846 1.02078e-19 0)
(179.866 1.22357e-19 0)
(179.885 1.42603e-19 0)
(179.902 1.62818e-19 0)
(179.918 1.83002e-19 0)
(179.933 2.03158e-19 0)
(179.946 2.23285e-19 0)
(179.957 2.43384e-19 0)
(179.967 2.63458e-19 0)
(179.976 2.83507e-19 0)
(179.983 3.03532e-19 0)
(179.989 3.23534e-19 0)
(179.993 3.43514e-19 0)
(179.996 3.63473e-19 0)
(179.997 3.83412e-19 0)
(179.997 4.03339e-19 0)
(179.996 4.23255e-19 0)
(179.993 4.43154e-19 0)
(179.989 4.63036e-19 0)
(179.983 4.82903e-19 0)
(179.976 5.02756e-19 0)
(179.967 5.22595e-19 0)
(179.957 5.42421e-19 0)
(179.946 5.62235e-19 0)
(179.933 5.82038e-19 0)
(179.918 6.01831e-19 0)
(179.902 6.21614e-19 0)
(179.885 6.41389e-19 0)
(179.866 6.61155e-19 0)
(179.846 6.80913e-19 0)
(179.825 7.00665e-19 0)
(179.802 7.20412e-19 0)
(179.777 7.40152e-19 0)
(179.751 7.59889e-19 0)
(179.724 7.79621e-19 0)
(179.695 7.9935e-19 0)
(179.665 8.19077e-19 0)
(179.633 8.38802e-19 0)
(179.6 8.58526e-19 0)
(179.565 8.78251e-19 0)
(179.529 8.97975e-19 0)
(179.492 9.17702e-19 0)
(179.453 9.37431e-19 0)
(179.413 9.57163e-19 0)
(179.371 9.769e-19 0)
(179.328 9.96644e-19 0)
(179.283 1.01639e-18 0)
(179.237 1.03615e-18 0)
(179.19 1.05592e-18 0)
(179.141 1.0757e-18 0)
(179.09 1.0955e-18 0)
(179.038 1.11531e-18 0)
(178.985 1.13514e-18 0)
(178.93 1.15499e-18 0)
(178.874 1.17487e-18 0)
(178.817 1.19477e-18 0)
(178.758 1.21471e-18 0)
(178.697 1.23468e-18 0)
(178.635 1.25469e-18 0)
(178.572 1.27475e-18 0)
(178.507 1.29487e-18 0)
(178.441 1.31504e-18 0)
(178.373 1.33527e-18 0)
(178.304 1.35558e-18 0)
(178.234 1.37598e-18 0)
(178.162 1.39646e-18 0)
(178.088 1.41705e-18 0)
(178.013 1.43776e-18 0)
(177.937 1.45859e-18 0)
(177.859 1.47957e-18 0)
(177.78 1.5007e-18 0)
(177.699 1.52202e-18 0)
(177.617 1.54352e-18 0)
(177.534 1.56524e-18 0)
(177.449 1.5872e-18 0)
(177.362 1.60942e-18 0)
(177.275 1.63193e-18 0)
(177.185 1.65475e-18 0)
(177.095 1.67792e-18 0)
(177.002 1.70147e-18 0)
(176.909 1.72543e-18 0)
(176.814 1.74985e-18 0)
(176.717 1.77477e-18 0)
(176.619 1.80022e-18 0)
(176.52 1.82626e-18 0)
(176.419 1.85294e-18 0)
(176.317 1.88031e-18 0)
(176.213 1.90843e-18 0)
(176.108 1.93736e-18 0)
(176.002 1.96717e-18 0)
(175.894 1.99792e-18 0)
(175.784 2.0297e-18 0)
(175.673 2.06257e-18 0)
(175.561 2.09662e-18 0)
(175.447 2.13195e-18 0)
(175.332 2.16865e-18 0)
(175.216 2.20595e-18 0)
(175.098 2.24476e-18 0)
(174.978 2.28512e-18 0)
(174.857 2.32714e-18 0)
(174.735 2.37016e-18 0)
(174.611 2.41433e-18 0)
(174.486 2.4597e-18 0)
(174.359 2.50631e-18 0)
(174.231 2.55503e-18 0)
(174.101 2.60509e-18 0)
(173.97 2.6566e-18 0)
(173.838 2.70964e-18 0)
(173.704 2.76431e-18 0)
(173.568 2.82067e-18 0)
(173.432 2.87879e-18 0)
(173.293 2.93875e-18 0)
(173.154 3.00058e-18 0)
(173.013 3.06432e-18 0)
(172.87 3.12999e-18 0)
(172.726 3.19757e-18 0)
(172.581 3.26705e-18 0)
(172.434 3.33836e-18 0)
(172.285 3.4114e-18 0)
(172.136 3.48605e-18 0)
(171.985 3.56214e-18 0)
(171.832 3.63944e-18 0)
(171.678 3.71767e-18 0)
(171.522 3.79738e-18 0)
(171.365 3.87825e-18 0)
(171.207 3.96001e-18 0)
(171.047 4.0423e-18 0)
(170.886 4.12472e-18 0)
(170.723 4.20684e-18 0)
(170.559 4.28815e-18 0)
(170.393 4.36811e-18 0)
(170.226 4.44612e-18 0)
(170.058 4.52152e-18 0)
(169.888 4.59358e-18 0)
(169.717 4.66319e-18 0)
(169.544 4.72954e-18 0)
(169.37 4.79181e-18 0)
(169.194 4.84919e-18 0)
(169.017 4.90082e-18 0)
(168.838 4.94587e-18 0)
(168.658 4.98535e-18 0)
(168.477 5.01889e-18 0)
(168.294 5.05032e-18 0)
(168.11 5.08344e-18 0)
(167.924 5.12669e-18 0)
(167.737 5.20044e-18 0)
(167.548 5.14534e-18 0)
(167.358 4.60885e-18 0)
(167.167 4.07333e-18 0)
(166.974 4.02108e-18 0)
(166.779 4.09957e-18 0)
(166.584 4.14955e-18 0)
(166.386 4.19149e-18 0)
(166.188 4.23381e-18 0)
(165.987 4.28036e-18 0)
(165.786 4.33334e-18 0)
(165.583 4.3941e-18 0)
(165.378 4.46178e-18 0)
(165.173 4.53711e-18 0)
(164.965 4.61916e-18 0)
(164.756 4.70707e-18 0)
(164.546 4.80007e-18 0)
(164.334 4.89746e-18 0)
(164.121 4.99863e-18 0)
(163.907 5.10306e-18 0)
(163.691 5.21016e-18 0)
(163.473 5.31928e-18 0)
(163.255 5.43145e-18 0)
(163.034 5.54602e-18 0)
(162.813 5.66245e-18 0)
(162.589 5.78022e-18 0)
(162.365 5.89889e-18 0)
(162.139 6.01808e-18 0)
(161.911 6.13746e-18 0)
(161.682 6.25671e-18 0)
(161.452 6.37559e-18 0)
(161.22 6.49389e-18 0)
(160.987 6.61141e-18 0)
(160.752 6.728e-18 0)
(160.516 6.84353e-18 0)
(160.278 6.95786e-18 0)
(160.039 7.07089e-18 0)
(159.799 7.18251e-18 0)
(159.557 7.2926e-18 0)
(159.314 7.40103e-18 0)
(159.069 7.50764e-18 0)
(158.823 7.61223e-18 0)
(158.575 7.71456e-18 0)
(158.326 7.81429e-18 0)
(158.075 7.91103e-18 0)
(157.823 8.00428e-18 0)
(157.57 8.09513e-18 0)
(157.315 8.18298e-18 0)
(157.059 8.26724e-18 0)
(156.801 8.34736e-18 0)
(156.542 8.42266e-18 0)
(156.281 8.49231e-18 0)
(156.019 8.55542e-18 0)
(155.756 8.61094e-18 0)
(155.491 8.65773e-18 0)
(155.224 8.69628e-18 0)
(154.956 8.72541e-18 0)
(154.687 8.74391e-18 0)
(154.416 8.75056e-18 0)
(154.144 8.74588e-18 0)
(153.871 8.72894e-18 0)
(153.596 8.69898e-18 0)
(153.319 8.65551e-18 0)
(153.041 8.59829e-18 0)
(152.762 8.5274e-18 0)
(152.481 8.44339e-18 0)
(152.199 8.34723e-18 0)
(151.915 8.24032e-18 0)
(151.63 8.1226e-18 0)
(151.344 7.99215e-18 0)
(151.056 7.84597e-18 0)
(150.766 7.68016e-18 0)
(150.475 7.50018e-18 0)
(150.183 7.17376e-18 0)
(149.889 7.0908e-18 0)
(149.594 7.0251e-18 0)
(149.298 6.74559e-18 0)
(149 6.64298e-18 0)
(148.7 6.58633e-18 0)
(148.399 6.58299e-18 0)
(148.097 6.6298e-18 0)
(147.793 6.72856e-18 0)
(147.488 6.84608e-18 0)
(147.181 6.78237e-18 0)
(146.873 6.84153e-18 0)
(146.563 6.93516e-18 0)
(146.252 6.92129e-18 0)
(145.94 7.06134e-18 0)
(145.626 7.0111e-18 0)
(145.31 7.11607e-18 0)
(144.994 7.15903e-18 0)
(144.675 6.92011e-18 0)
(144.356 6.77515e-18 0)
(144.035 6.57368e-18 0)
(143.712 6.3645e-18 0)
(143.388 6.18833e-18 0)
(143.063 6.03721e-18 0)
(142.736 5.90842e-18 0)
(142.408 5.80052e-18 0)
(142.078 5.71298e-18 0)
(141.747 5.64237e-18 0)
(141.414 5.58874e-18 0)
(141.08 5.55226e-18 0)
(140.744 5.53293e-18 0)
(140.407 5.53032e-18 0)
(140.069 5.54331e-18 0)
(139.729 5.57009e-18 0)
(139.388 5.6078e-18 0)
(139.045 5.65251e-18 0)
(138.701 5.70252e-18 0)
(138.356 5.75541e-18 0)
(138.009 5.8161e-18 0)
(137.66 5.74601e-18 0)
(137.31 5.57202e-18 0)
(136.959 5.4012e-18 0)
(136.606 5.34375e-18 0)
(136.252 5.42973e-18 0)
(135.896 5.5171e-18 0)
(135.539 5.61077e-18 0)
(135.18 5.7083e-18 0)
(134.821 5.80793e-18 0)
(134.459 5.9057e-18 0)
(134.096 5.99868e-18 0)
(133.732 6.08501e-18 0)
(133.366 6.16356e-18 0)
(132.999 6.23392e-18 0)
(132.63 6.29621e-18 0)
(132.26 6.35086e-18 0)
(131.889 6.39848e-18 0)
(131.516 6.43973e-18 0)
(131.141 6.47519e-18 0)
(130.766 6.50563e-18 0)
(130.388 6.53199e-18 0)
(130.01 6.55178e-18 0)
(129.629 6.56581e-18 0)
(129.248 6.57468e-18 0)
(128.865 6.57881e-18 0)
(128.48 6.57847e-18 0)
(128.095 6.57377e-18 0)
(127.707 6.56473e-18 0)
(127.318 6.55123e-18 0)
(126.928 6.53308e-18 0)
(126.536 6.51e-18 0)
(126.143 6.48163e-18 0)
(125.749 6.45108e-18 0)
(125.353 6.41478e-18 0)
(124.955 6.37267e-18 0)
(124.557 6.32442e-18 0)
(124.156 6.26943e-18 0)
(123.754 6.21031e-18 0)
(123.351 6.1465e-18 0)
(122.947 6.07779e-18 0)
(122.541 6.00394e-18 0)
(122.133 5.92473e-18 0)
(121.724 5.84003e-18 0)
(121.314 5.74975e-18 0)
(120.902 5.65395e-18 0)
(120.489 5.55281e-18 0)
(120.074 5.44673e-18 0)
(119.658 5.33631e-18 0)
(119.24 5.22245e-18 0)
(118.821 5.1064e-18 0)
(118.401 4.98631e-18 0)
(117.979 4.86397e-18 0)
(117.555 4.74135e-18 0)
(117.131 4.62062e-18 0)
(116.704 4.50418e-18 0)
(116.277 4.39492e-18 0)
(115.848 4.29273e-18 0)
(115.417 4.20101e-18 0)
(114.985 4.12308e-18 0)
(114.552 4.05882e-18 0)
(114.117 4.01102e-18 0)
(113.68 3.98186e-18 0)
(113.243 3.97287e-18 0)
(112.804 3.94433e-18 0)
(112.363 3.55354e-18 0)
(111.921 3.16771e-18 0)
(111.477 3.14335e-18 0)
(111.032 3.14099e-18 0)
(110.586 3.12081e-18 0)
(110.138 3.08424e-18 0)
(109.689 3.03348e-18 0)
(109.238 2.97137e-18 0)
(108.786 2.8979e-18 0)
(108.332 2.81655e-18 0)
(107.877 2.72748e-18 0)
(107.421 2.63394e-18 0)
(106.963 2.53877e-18 0)
(106.504 2.44462e-18 0)
(106.043 2.35397e-18 0)
(105.581 2.26563e-18 0)
(105.117 2.18142e-18 0)
(104.652 2.10276e-18 0)
(104.185 2.03068e-18 0)
(103.717 1.96589e-18 0)
(103.248 1.9088e-18 0)
(102.777 1.85952e-18 0)
(102.305 1.81793e-18 0)
(101.831 1.78363e-18 0)
(101.356 1.75596e-18 0)
(100.879 1.73402e-18 0)
(100.401 1.71662e-18 0)
(99.9214 1.70224e-18 0)
(99.4405 1.69254e-18 0)
(98.9581 1.68566e-18 0)
(98.4742 1.67971e-18 0)
(97.9889 1.67241e-18 0)
(97.5022 1.66107e-18 0)
(97.0141 1.64258e-18 0)
(96.5245 1.61676e-18 0)
(96.0334 1.57975e-18 0)
(95.541 1.52749e-18 0)
(95.047 1.46273e-18 0)
(94.5517 1.31599e-18 0)
(94.0549 9.23772e-19 0)
(93.5566 5.21922e-19 0)
(93.057 3.45183e-19 0)
(92.5558 2.27286e-19 0)
(92.0533 9.75406e-20 0)
(91.5493 -2.58999e-20 0)
(91.0439 -1.30441e-19 0)
(90.537 -2.27027e-19 0)
(90.0287 -3.4626e-19 0)
(89.5189 -5.63971e-19 0)
(89.0077 -7.92197e-19 0)
(88.4951 -1.03397e-18 0)
(87.981 -1.30391e-18 0)
(87.4655 -1.51184e-18 0)
(86.9485 -1.71156e-18 0)
(86.4301 -1.88886e-18 0)
(85.9102 -2.02989e-18 0)
(85.389 -2.1471e-18 0)
(84.8662 -2.24942e-18 0)
(84.3421 -2.34346e-18 0)
(83.8165 -2.43606e-18 0)
(83.2894 -2.53777e-18 0)
(82.761 -2.65245e-18 0)
(82.231 -2.81159e-18 0)
(81.6997 -2.89558e-18 0)
(81.1669 -2.95439e-18 0)
(80.6326 -3.03367e-18 0)
(80.097 -3.00102e-18 0)
(79.5598 -2.96847e-18 0)
(79.0213 -3.23618e-18 0)
(78.4813 -3.47702e-18 0)
(77.9398 -3.33312e-18 0)
(77.3969 -3.0717e-18 0)
(76.8526 -3.12629e-18 0)
(76.3069 -3.47765e-18 0)
(75.7596 -3.8168e-18 0)
(75.211 -3.86854e-18 0)
(74.6609 -3.6461e-18 0)
(74.1094 -3.46999e-18 0)
(73.5564 -3.30308e-18 0)
(73.002 -3.14255e-18 0)
(72.4462 -2.98377e-18 0)
(71.8889 -2.8195e-18 0)
(71.3302 -2.71159e-18 0)
(70.77 -2.9099e-18 0)
(70.2084 -3.10779e-18 0)
(69.6454 -3.00572e-18 0)
(69.0809 -2.85468e-18 0)
(68.5149 -2.71833e-18 0)
(67.9476 -2.5924e-18 0)
(67.3788 -2.47651e-18 0)
(66.8085 -2.37019e-18 0)
(66.2368 -2.27299e-18 0)
(65.6637 -2.18416e-18 0)
(65.0892 -2.10281e-18 0)
(64.5131 -2.02797e-18 0)
(63.9357 -1.95873e-18 0)
(63.3568 -1.89391e-18 0)
(62.7765 -1.83567e-18 0)
(62.1947 -1.78286e-18 0)
(61.6115 -1.73446e-18 0)
(61.0269 -1.68962e-18 0)
(60.4408 -1.64761e-18 0)
(59.8533 -1.60776e-18 0)
(59.2643 -1.56949e-18 0)
(58.6739 -1.53219e-18 0)
(58.082 -1.49527e-18 0)
(57.4887 -1.45804e-18 0)
(56.894 -1.41967e-18 0)
(56.2978 -1.37914e-18 0)
(55.7002 -1.33515e-18 0)
(55.1012 -1.28599e-18 0)
(54.5007 -1.22941e-18 0)
(53.8988 -1.16247e-18 0)
(53.2954 -1.0813e-18 0)
(52.6906 -9.80927e-19 0)
(52.0843 -9.16086e-19 0)
(51.4767 -8.2707e-19 0)
(50.8675 -7.37677e-19 0)
(50.257 -6.72028e-19 0)
(49.645 -5.70685e-19 0)
(49.0315 -4.88703e-19 0)
(48.4166 -4.21112e-19 0)
(47.8003 -3.64165e-19 0)
(47.1825 -3.15088e-19 0)
(46.5633 -2.71865e-19 0)
(45.9427 -2.33068e-19 0)
(45.3206 -1.97717e-19 0)
(44.697 -1.65166e-19 0)
(44.0721 -1.35013e-19 0)
(43.4457 -1.0703e-19 0)
(42.8178 -8.10942e-20 0)
(42.1885 -5.71377e-20 0)
(41.5578 -3.50945e-20 0)
(40.9256 -1.48546e-20 0)
(40.292 3.78395e-21 0)
(39.6569 2.11614e-20 0)
(39.0205 3.78055e-20 0)
(38.3825 5.44847e-20 0)
(37.7432 7.22692e-20 0)
(37.1023 9.9594e-20 0)
(36.4601 8.92048e-20 0)
(35.8164 -7.93947e-20 0)
(35.1713 -2.60917e-19 0)
(34.5247 -2.88821e-19 0)
(33.8767 -2.75735e-19 0)
(33.2272 -2.75693e-19 0)
(32.5763 -2.93199e-19 0)
(31.924 -3.18085e-19 0)
(31.2702 -3.32736e-19 0)
(30.615 -3.61433e-19 0)
(29.9584 -3.282e-19 0)
(29.3003 -3.00022e-19 0)
(28.6407 -3.2978e-19 0)
(27.9798 -3.27699e-19 0)
(27.3174 -3.25964e-19 0)
(26.6535 -3.22736e-19 0)
(25.9882 -3.17356e-19 0)
(25.3215 -3.03099e-19 0)
(24.6533 -2.80213e-19 0)
(23.9837 -2.70999e-19 0)
(23.3126 -2.70317e-19 0)
(22.6401 -2.59928e-19 0)
(21.9662 -2.4284e-19 0)
(21.2908 -2.1431e-19 0)
(20.614 -1.9024e-19 0)
(19.9358 -1.72123e-19 0)
(19.2561 -1.61447e-19 0)
(18.5749 -1.59693e-19 0)
(17.8924 -1.61374e-19 0)
(17.2084 -1.81624e-19 0)
(16.5229 -2.08078e-19 0)
(15.836 -2.28646e-19 0)
(15.1477 -2.30849e-19 0)
(14.4579 -2.08342e-19 0)
(13.7667 -1.96042e-19 0)
(13.074 -1.60235e-19 0)
(12.3799 -1.23396e-19 0)
(11.6844 -1.07885e-19 0)
(10.9874 -7.59433e-20 0)
(10.289 -4.71904e-20 0)
(9.58916 -2.36731e-20 0)
(8.88787 -4.1121e-21 0)
(8.18513 1.25491e-20 0)
(7.48096 2.35702e-20 0)
(6.77534 -1.50719e-20 0)
(6.06829 -5.5011e-20 0)
(5.35979 -4.69449e-20 0)
(4.64986 -3.43493e-20 0)
(3.93848 -2.31424e-20 0)
(3.22567 -1.53757e-20 0)
(2.51141 -9.35539e-21 0)
(1.79572 -4.18087e-21 0)
(1.07858 2.72792e-22 0)
(0.360008 -6.82318e-22 0)
)
;

boundaryField
{
    top_wall
    {
        type            noSlip;
    }
    inlet
    {
        type            cyclic;
    }
    bot_wall
    {
        type            noSlip;
    }
    outlet
    {
        type            cyclic;
    }
    frontAndBack
    {
        type            empty;
    }
}


// ************************************************************************* //
