# Wall shear stress
# Time          	patch           	min             	max             
0.5             	top_wall	(-7.48630637e-01 -1.82296886e-21 0.00000000e+00)	(-7.48630637e-01 -1.82296886e-21 0.00000000e+00)
0.5             	bot_wall	(-7.48630637e-01 3.42640323e-17 0.00000000e+00)	(-7.48630637e-01 3.42640323e-17 0.00000000e+00)
1               	top_wall	(-5.53713842e-01 -1.82107418e-21 0.00000000e+00)	(-5.53713842e-01 -1.82107418e-21 0.00000000e+00)
1               	bot_wall	(-5.53713843e-01 4.28138898e-17 0.00000000e+00)	(-5.53713843e-01 4.28138898e-17 0.00000000e+00)
1.5             	top_wall	(-4.68556222e-01 7.88312474e-22 0.00000000e+00)	(-4.68556222e-01 7.88312474e-22 0.00000000e+00)
1.5             	bot_wall	(-4.68556223e-01 3.03269723e-17 0.00000000e+00)	(-4.68556223e-01 3.03269723e-17 0.00000000e+00)
2               	top_wall	(-4.18395910e-01 7.52307698e-21 0.00000000e+00)	(-4.18395910e-01 7.52307698e-21 0.00000000e+00)
2               	bot_wall	(-4.18395911e-01 3.52057734e-17 0.00000000e+00)	(-4.18395911e-01 3.52057734e-17 0.00000000e+00)
2.5             	top_wall	(-3.84566712e-01 1.72062085e-21 0.00000000e+00)	(-3.84566712e-01 1.72062085e-21 0.00000000e+00)
2.5             	bot_wall	(-3.84566713e-01 4.72461781e-17 0.00000000e+00)	(-3.84566713e-01 4.72461781e-17 0.00000000e+00)
3               	top_wall	(-3.59894365e-01 -1.83794739e-21 0.00000000e+00)	(-3.59894365e-01 -1.83794739e-21 0.00000000e+00)
3               	bot_wall	(-3.59894367e-01 3.42223789e-17 0.00000000e+00)	(-3.59894367e-01 3.42223789e-17 0.00000000e+00)
3.5             	top_wall	(-3.40956375e-01 -6.62951439e-22 0.00000000e+00)	(-3.40956375e-01 -6.62951439e-22 0.00000000e+00)
3.5             	bot_wall	(-3.40956377e-01 4.02447591e-17 0.00000000e+00)	(-3.40956377e-01 4.02447591e-17 0.00000000e+00)
4               	top_wall	(-3.25886857e-01 3.86287612e-21 0.00000000e+00)	(-3.25886857e-01 3.86287612e-21 0.00000000e+00)
4               	bot_wall	(-3.25886858e-01 3.95186682e-17 0.00000000e+00)	(-3.25886858e-01 3.95186682e-17 0.00000000e+00)
4.5             	top_wall	(-3.13571045e-01 -2.96530843e-21 0.00000000e+00)	(-3.13571045e-01 -2.96530843e-21 0.00000000e+00)
4.5             	bot_wall	(-3.13571047e-01 3.70606642e-17 0.00000000e+00)	(-3.13571047e-01 3.70606642e-17 0.00000000e+00)
5               	top_wall	(-3.03296691e-01 7.28251809e-22 0.00000000e+00)	(-3.03296691e-01 7.28251809e-22 0.00000000e+00)
5               	bot_wall	(-3.03296693e-01 3.87189899e-17 0.00000000e+00)	(-3.03296693e-01 3.87189899e-17 0.00000000e+00)
5.5             	top_wall	(-2.94584789e-01 2.47904738e-21 0.00000000e+00)	(-2.94584789e-01 2.47904738e-21 0.00000000e+00)
5.5             	bot_wall	(-2.94584790e-01 2.47093120e-17 0.00000000e+00)	(-2.94584790e-01 2.47093120e-17 0.00000000e+00)
6               	top_wall	(-2.87099912e-01 2.54743793e-21 0.00000000e+00)	(-2.87099912e-01 2.54743793e-21 0.00000000e+00)
6               	bot_wall	(-2.87099914e-01 3.25762335e-17 0.00000000e+00)	(-2.87099914e-01 3.25762335e-17 0.00000000e+00)
6.5             	top_wall	(-2.80599154e-01 -3.78655868e-23 0.00000000e+00)	(-2.80599154e-01 -3.78655868e-23 0.00000000e+00)
6.5             	bot_wall	(-2.80599155e-01 3.42285225e-17 0.00000000e+00)	(-2.80599155e-01 3.42285225e-17 0.00000000e+00)
7               	top_wall	(-2.74901902e-01 1.96738484e-22 0.00000000e+00)	(-2.74901902e-01 1.96738484e-22 0.00000000e+00)
7               	bot_wall	(-2.74901904e-01 3.64352729e-17 0.00000000e+00)	(-2.74901904e-01 3.64352729e-17 0.00000000e+00)
7.5             	top_wall	(-2.69870604e-01 2.70245624e-22 0.00000000e+00)	(-2.69870604e-01 2.70245624e-22 0.00000000e+00)
7.5             	bot_wall	(-2.69870606e-01 3.51654613e-17 0.00000000e+00)	(-2.69870606e-01 3.51654613e-17 0.00000000e+00)
8               	top_wall	(-2.65398525e-01 -3.11337139e-21 0.00000000e+00)	(-2.65398525e-01 -3.11337139e-21 0.00000000e+00)
8               	bot_wall	(-2.65398526e-01 2.33509883e-17 0.00000000e+00)	(-2.65398526e-01 2.33509883e-17 0.00000000e+00)
8.5             	top_wall	(-2.61401323e-01 -2.77575677e-21 0.00000000e+00)	(-2.61401323e-01 -2.77575677e-21 0.00000000e+00)
8.5             	bot_wall	(-2.61401325e-01 3.29114213e-17 0.00000000e+00)	(-2.61401325e-01 3.29114213e-17 0.00000000e+00)
9               	top_wall	(-2.57811460e-01 -1.81130709e-21 0.00000000e+00)	(-2.57811460e-01 -1.81130709e-21 0.00000000e+00)
9               	bot_wall	(-2.57811461e-01 2.67068915e-17 0.00000000e+00)	(-2.57811461e-01 2.67068915e-17 0.00000000e+00)
9.5             	top_wall	(-2.54573998e-01 -1.88935840e-21 0.00000000e+00)	(-2.54573998e-01 -1.88935840e-21 0.00000000e+00)
9.5             	bot_wall	(-2.54573999e-01 3.31627250e-17 0.00000000e+00)	(-2.54573999e-01 3.31627250e-17 0.00000000e+00)
10              	top_wall	(-2.51643896e-01 -1.82287630e-21 0.00000000e+00)	(-2.51643896e-01 -1.82287630e-21 0.00000000e+00)
10              	bot_wall	(-2.51643898e-01 4.21608651e-17 0.00000000e+00)	(-2.51643898e-01 4.21608651e-17 0.00000000e+00)
10.5            	top_wall	(-2.48983613e-01 -4.13595598e-22 0.00000000e+00)	(-2.48983613e-01 -4.13595598e-22 0.00000000e+00)
10.5            	bot_wall	(-2.48983615e-01 3.99738352e-17 0.00000000e+00)	(-2.48983615e-01 3.99738352e-17 0.00000000e+00)
11              	top_wall	(-2.46561787e-01 -2.04330505e-24 0.00000000e+00)	(-2.46561787e-01 -2.04330505e-24 0.00000000e+00)
11              	bot_wall	(-2.46561788e-01 3.05486657e-17 0.00000000e+00)	(-2.46561788e-01 3.05486657e-17 0.00000000e+00)
11.5            	top_wall	(-2.44351768e-01 3.95664222e-22 0.00000000e+00)	(-2.44351768e-01 3.95664222e-22 0.00000000e+00)
11.5            	bot_wall	(-2.44351769e-01 3.73006951e-17 0.00000000e+00)	(-2.44351769e-01 3.73006951e-17 0.00000000e+00)
12              	top_wall	(-2.42330893e-01 4.27418391e-22 0.00000000e+00)	(-2.42330893e-01 4.27418391e-22 0.00000000e+00)
12              	bot_wall	(-2.42330894e-01 4.21185524e-17 0.00000000e+00)	(-2.42330894e-01 4.21185524e-17 0.00000000e+00)
12.5            	top_wall	(-2.40479641e-01 9.11893410e-22 0.00000000e+00)	(-2.40479641e-01 9.11893410e-22 0.00000000e+00)
12.5            	bot_wall	(-2.40479643e-01 3.32640717e-17 0.00000000e+00)	(-2.40479643e-01 3.32640717e-17 0.00000000e+00)
13              	top_wall	(-2.38781098e-01 -1.42441922e-21 0.00000000e+00)	(-2.38781098e-01 -1.42441922e-21 0.00000000e+00)
13              	bot_wall	(-2.38781100e-01 3.81974853e-17 0.00000000e+00)	(-2.38781100e-01 3.81974853e-17 0.00000000e+00)
13.5            	top_wall	(-2.37220586e-01 8.40557348e-22 0.00000000e+00)	(-2.37220586e-01 8.40557348e-22 0.00000000e+00)
13.5            	bot_wall	(-2.37220587e-01 3.87342550e-17 0.00000000e+00)	(-2.37220587e-01 3.87342550e-17 0.00000000e+00)
14              	top_wall	(-2.35785127e-01 -4.13177202e-21 0.00000000e+00)	(-2.35785127e-01 -4.13177202e-21 0.00000000e+00)
14              	bot_wall	(-2.35785128e-01 4.12210846e-17 0.00000000e+00)	(-2.35785128e-01 4.12210846e-17 0.00000000e+00)
14.5            	top_wall	(-2.34463389e-01 6.37922624e-22 0.00000000e+00)	(-2.34463389e-01 6.37922624e-22 0.00000000e+00)
14.5            	bot_wall	(-2.34463391e-01 4.62747010e-17 0.00000000e+00)	(-2.34463391e-01 4.62747010e-17 0.00000000e+00)
15              	top_wall	(-2.33245234e-01 -1.19830174e-21 0.00000000e+00)	(-2.33245234e-01 -1.19830174e-21 0.00000000e+00)
15              	bot_wall	(-2.33245235e-01 4.20775554e-17 0.00000000e+00)	(-2.33245235e-01 4.20775554e-17 0.00000000e+00)
15.5            	top_wall	(-2.32121676e-01 3.87333162e-22 0.00000000e+00)	(-2.32121676e-01 3.87333162e-22 0.00000000e+00)
15.5            	bot_wall	(-2.32121678e-01 4.07450215e-17 0.00000000e+00)	(-2.32121678e-01 4.07450215e-17 0.00000000e+00)
16              	top_wall	(-2.31084691e-01 -1.21033171e-21 0.00000000e+00)	(-2.31084691e-01 -1.21033171e-21 0.00000000e+00)
16              	bot_wall	(-2.31084692e-01 3.55392287e-17 0.00000000e+00)	(-2.31084692e-01 3.55392287e-17 0.00000000e+00)
16.5            	top_wall	(-2.30127000e-01 4.48901323e-22 0.00000000e+00)	(-2.30127000e-01 4.48901323e-22 0.00000000e+00)
16.5            	bot_wall	(-2.30127002e-01 2.63041525e-17 0.00000000e+00)	(-2.30127002e-01 2.63041525e-17 0.00000000e+00)
17              	top_wall	(-2.29242150e-01 -1.26235633e-21 0.00000000e+00)	(-2.29242150e-01 -1.26235633e-21 0.00000000e+00)
17              	bot_wall	(-2.29242152e-01 3.67194002e-17 0.00000000e+00)	(-2.29242152e-01 3.67194002e-17 0.00000000e+00)
17.5            	top_wall	(-2.28424190e-01 -1.62498977e-22 0.00000000e+00)	(-2.28424190e-01 -1.62498977e-22 0.00000000e+00)
17.5            	bot_wall	(-2.28424192e-01 3.09153192e-17 0.00000000e+00)	(-2.28424192e-01 3.09153192e-17 0.00000000e+00)
18              	top_wall	(-2.27667793e-01 8.87070315e-22 0.00000000e+00)	(-2.27667793e-01 8.87070315e-22 0.00000000e+00)
18              	bot_wall	(-2.27667795e-01 3.69709481e-17 0.00000000e+00)	(-2.27667795e-01 3.69709481e-17 0.00000000e+00)
18.5            	top_wall	(-2.26968109e-01 -3.02747795e-22 0.00000000e+00)	(-2.26968109e-01 -3.02747795e-22 0.00000000e+00)
18.5            	bot_wall	(-2.26968111e-01 3.22051009e-17 0.00000000e+00)	(-2.26968111e-01 3.22051009e-17 0.00000000e+00)
19              	top_wall	(-2.26320659e-01 -7.00252192e-22 0.00000000e+00)	(-2.26320659e-01 -7.00252192e-22 0.00000000e+00)
19              	bot_wall	(-2.26320661e-01 3.10332315e-17 0.00000000e+00)	(-2.26320661e-01 3.10332315e-17 0.00000000e+00)
19.5            	top_wall	(-2.25721455e-01 1.39677975e-21 0.00000000e+00)	(-2.25721455e-01 1.39677975e-21 0.00000000e+00)
19.5            	bot_wall	(-2.25721456e-01 2.99542665e-17 0.00000000e+00)	(-2.25721456e-01 2.99542665e-17 0.00000000e+00)
20              	top_wall	(-2.25166732e-01 7.16512330e-22 0.00000000e+00)	(-2.25166732e-01 7.16512330e-22 0.00000000e+00)
20              	bot_wall	(-2.25166733e-01 2.86262001e-17 0.00000000e+00)	(-2.25166733e-01 2.86262001e-17 0.00000000e+00)
20.5            	top_wall	(-2.24653108e-01 9.51922833e-22 0.00000000e+00)	(-2.24653108e-01 9.51922833e-22 0.00000000e+00)
20.5            	bot_wall	(-2.24653110e-01 3.58216753e-17 0.00000000e+00)	(-2.24653110e-01 3.58216753e-17 0.00000000e+00)
21              	top_wall	(-2.24177484e-01 -9.59181829e-22 0.00000000e+00)	(-2.24177484e-01 -9.59181829e-22 0.00000000e+00)
21              	bot_wall	(-2.24177486e-01 3.37612191e-17 0.00000000e+00)	(-2.24177486e-01 3.37612191e-17 0.00000000e+00)
21.5            	top_wall	(-2.23736942e-01 -2.69810346e-22 0.00000000e+00)	(-2.23736942e-01 -2.69810346e-22 0.00000000e+00)
21.5            	bot_wall	(-2.23736943e-01 3.15391769e-17 0.00000000e+00)	(-2.23736943e-01 3.15391769e-17 0.00000000e+00)
22              	top_wall	(-2.23328901e-01 2.29708658e-21 0.00000000e+00)	(-2.23328901e-01 2.29708658e-21 0.00000000e+00)
22              	bot_wall	(-2.23328903e-01 3.32815895e-17 0.00000000e+00)	(-2.23328903e-01 3.32815895e-17 0.00000000e+00)
22.5            	top_wall	(-2.22950883e-01 -1.16950131e-21 0.00000000e+00)	(-2.22950883e-01 -1.16950131e-21 0.00000000e+00)
22.5            	bot_wall	(-2.22950884e-01 3.13221029e-17 0.00000000e+00)	(-2.22950884e-01 3.13221029e-17 0.00000000e+00)
23              	top_wall	(-2.22600652e-01 2.68954857e-21 0.00000000e+00)	(-2.22600652e-01 2.68954857e-21 0.00000000e+00)
23              	bot_wall	(-2.22600654e-01 3.47546654e-17 0.00000000e+00)	(-2.22600654e-01 3.47546654e-17 0.00000000e+00)
23.5            	top_wall	(-2.22276172e-01 5.82217258e-22 0.00000000e+00)	(-2.22276172e-01 5.82217258e-22 0.00000000e+00)
23.5            	bot_wall	(-2.22276174e-01 2.98840118e-17 0.00000000e+00)	(-2.22276174e-01 2.98840118e-17 0.00000000e+00)
24              	top_wall	(-2.21975481e-01 -4.48876890e-23 0.00000000e+00)	(-2.21975481e-01 -4.48876890e-23 0.00000000e+00)
24              	bot_wall	(-2.21975483e-01 2.78583713e-17 0.00000000e+00)	(-2.21975483e-01 2.78583713e-17 0.00000000e+00)
24.5            	top_wall	(-2.21696867e-01 5.85141275e-22 0.00000000e+00)	(-2.21696867e-01 5.85141275e-22 0.00000000e+00)
24.5            	bot_wall	(-2.21696869e-01 3.53367283e-17 0.00000000e+00)	(-2.21696869e-01 3.53367283e-17 0.00000000e+00)
25              	top_wall	(-2.21438667e-01 -7.28688174e-22 0.00000000e+00)	(-2.21438667e-01 -7.28688174e-22 0.00000000e+00)
25              	bot_wall	(-2.21438668e-01 3.15063475e-17 0.00000000e+00)	(-2.21438668e-01 3.15063475e-17 0.00000000e+00)
25.5            	top_wall	(-2.21199365e-01 1.07424249e-21 0.00000000e+00)	(-2.21199365e-01 1.07424249e-21 0.00000000e+00)
25.5            	bot_wall	(-2.21199367e-01 3.54535589e-17 0.00000000e+00)	(-2.21199367e-01 3.54535589e-17 0.00000000e+00)
26              	top_wall	(-2.20977619e-01 3.23030881e-24 0.00000000e+00)	(-2.20977619e-01 3.23030881e-24 0.00000000e+00)
26              	bot_wall	(-2.20977621e-01 3.06335994e-17 0.00000000e+00)	(-2.20977621e-01 3.06335994e-17 0.00000000e+00)
26.5            	top_wall	(-2.20772075e-01 1.57152487e-22 0.00000000e+00)	(-2.20772075e-01 1.57152487e-22 0.00000000e+00)
26.5            	bot_wall	(-2.20772077e-01 3.79531022e-17 0.00000000e+00)	(-2.20772077e-01 3.79531022e-17 0.00000000e+00)
27              	top_wall	(-2.20581586e-01 3.50041199e-22 0.00000000e+00)	(-2.20581586e-01 3.50041199e-22 0.00000000e+00)
27              	bot_wall	(-2.20581588e-01 3.60001731e-17 0.00000000e+00)	(-2.20581588e-01 3.60001731e-17 0.00000000e+00)
27.5            	top_wall	(-2.20405031e-01 -6.39860863e-22 0.00000000e+00)	(-2.20405031e-01 -6.39860863e-22 0.00000000e+00)
27.5            	bot_wall	(-2.20405032e-01 3.63292230e-17 0.00000000e+00)	(-2.20405032e-01 3.63292230e-17 0.00000000e+00)
28              	top_wall	(-2.20241359e-01 -3.83829357e-22 0.00000000e+00)	(-2.20241359e-01 -3.83829357e-22 0.00000000e+00)
28              	bot_wall	(-2.20241361e-01 3.70596997e-17 0.00000000e+00)	(-2.20241361e-01 3.70596997e-17 0.00000000e+00)
28.5            	top_wall	(-2.20089699e-01 1.19716036e-21 0.00000000e+00)	(-2.20089699e-01 1.19716036e-21 0.00000000e+00)
28.5            	bot_wall	(-2.20089701e-01 2.95560905e-17 0.00000000e+00)	(-2.20089701e-01 2.95560905e-17 0.00000000e+00)
29              	top_wall	(-2.19949095e-01 1.39807175e-22 0.00000000e+00)	(-2.19949095e-01 1.39807175e-22 0.00000000e+00)
29              	bot_wall	(-2.19949096e-01 2.95277497e-17 0.00000000e+00)	(-2.19949096e-01 2.95277497e-17 0.00000000e+00)
29.5            	top_wall	(-2.19818772e-01 -4.36975001e-22 0.00000000e+00)	(-2.19818772e-01 -4.36975001e-22 0.00000000e+00)
29.5            	bot_wall	(-2.19818774e-01 3.32513353e-17 0.00000000e+00)	(-2.19818774e-01 3.32513353e-17 0.00000000e+00)
30              	top_wall	(-2.19697983e-01 1.79302543e-21 0.00000000e+00)	(-2.19697983e-01 1.79302543e-21 0.00000000e+00)
30              	bot_wall	(-2.19697985e-01 3.28568987e-17 0.00000000e+00)	(-2.19697985e-01 3.28568987e-17 0.00000000e+00)
30.5            	top_wall	(-2.19585992e-01 -1.97317361e-22 0.00000000e+00)	(-2.19585992e-01 -1.97317361e-22 0.00000000e+00)
30.5            	bot_wall	(-2.19585994e-01 3.32285985e-17 0.00000000e+00)	(-2.19585994e-01 3.32285985e-17 0.00000000e+00)
31              	top_wall	(-2.19482217e-01 8.59603330e-22 0.00000000e+00)	(-2.19482217e-01 8.59603330e-22 0.00000000e+00)
31              	bot_wall	(-2.19482219e-01 3.24624515e-17 0.00000000e+00)	(-2.19482219e-01 3.24624515e-17 0.00000000e+00)
31.5            	top_wall	(-2.19386004e-01 5.21576918e-22 0.00000000e+00)	(-2.19386004e-01 5.21576918e-22 0.00000000e+00)
31.5            	bot_wall	(-2.19386006e-01 3.85021084e-17 0.00000000e+00)	(-2.19386006e-01 3.85021084e-17 0.00000000e+00)
32              	top_wall	(-2.19296813e-01 -6.36292637e-21 0.00000000e+00)	(-2.19296813e-01 -6.36292637e-21 0.00000000e+00)
32              	bot_wall	(-2.19296814e-01 3.25346935e-17 0.00000000e+00)	(-2.19296814e-01 3.25346935e-17 0.00000000e+00)
32.5            	top_wall	(-2.19214159e-01 1.11918615e-21 0.00000000e+00)	(-2.19214159e-01 1.11918615e-21 0.00000000e+00)
32.5            	bot_wall	(-2.19214160e-01 3.82408635e-17 0.00000000e+00)	(-2.19214160e-01 3.82408635e-17 0.00000000e+00)
33              	top_wall	(-2.19137513e-01 1.27043230e-21 0.00000000e+00)	(-2.19137513e-01 1.27043230e-21 0.00000000e+00)
33              	bot_wall	(-2.19137515e-01 3.59515179e-17 0.00000000e+00)	(-2.19137515e-01 3.59515179e-17 0.00000000e+00)
33.5            	top_wall	(-2.19066488e-01 8.35859115e-22 0.00000000e+00)	(-2.19066488e-01 8.35859115e-22 0.00000000e+00)
33.5            	bot_wall	(-2.19066490e-01 3.69625028e-17 0.00000000e+00)	(-2.19066490e-01 3.69625028e-17 0.00000000e+00)
34              	top_wall	(-2.19000643e-01 -6.72843915e-22 0.00000000e+00)	(-2.19000643e-01 -6.72843915e-22 0.00000000e+00)
34              	bot_wall	(-2.19000645e-01 3.41534810e-17 0.00000000e+00)	(-2.19000645e-01 3.41534810e-17 0.00000000e+00)
34.5            	top_wall	(-2.18939586e-01 -1.01508344e-21 0.00000000e+00)	(-2.18939586e-01 -1.01508344e-21 0.00000000e+00)
34.5            	bot_wall	(-2.18939587e-01 3.34691589e-17 0.00000000e+00)	(-2.18939587e-01 3.34691589e-17 0.00000000e+00)
35              	top_wall	(-2.18883025e-01 6.10096768e-22 0.00000000e+00)	(-2.18883025e-01 6.10096768e-22 0.00000000e+00)
35              	bot_wall	(-2.18883026e-01 3.15335626e-17 0.00000000e+00)	(-2.18883026e-01 3.15335626e-17 0.00000000e+00)
35.5            	top_wall	(-2.18830566e-01 4.96460241e-22 0.00000000e+00)	(-2.18830566e-01 4.96460241e-22 0.00000000e+00)
35.5            	bot_wall	(-2.18830567e-01 3.58142905e-17 0.00000000e+00)	(-2.18830567e-01 3.58142905e-17 0.00000000e+00)
36              	top_wall	(-2.18781946e-01 -1.00619216e-21 0.00000000e+00)	(-2.18781946e-01 -1.00619216e-21 0.00000000e+00)
36              	bot_wall	(-2.18781947e-01 3.41467986e-17 0.00000000e+00)	(-2.18781947e-01 3.41467986e-17 0.00000000e+00)
36.5            	top_wall	(-2.18736884e-01 6.11967437e-22 0.00000000e+00)	(-2.18736884e-01 6.11967437e-22 0.00000000e+00)
36.5            	bot_wall	(-2.18736885e-01 3.66255969e-17 0.00000000e+00)	(-2.18736885e-01 3.66255969e-17 0.00000000e+00)
37              	top_wall	(-2.18695084e-01 2.03176711e-21 0.00000000e+00)	(-2.18695084e-01 2.03176711e-21 0.00000000e+00)
37              	bot_wall	(-2.18695086e-01 3.58581206e-17 0.00000000e+00)	(-2.18695086e-01 3.58581206e-17 0.00000000e+00)
37.5            	top_wall	(-2.18656373e-01 9.28616129e-22 0.00000000e+00)	(-2.18656373e-01 9.28616129e-22 0.00000000e+00)
37.5            	bot_wall	(-2.18656375e-01 3.95935994e-17 0.00000000e+00)	(-2.18656375e-01 3.95935994e-17 0.00000000e+00)
38              	top_wall	(-2.18620468e-01 1.38042795e-21 0.00000000e+00)	(-2.18620468e-01 1.38042795e-21 0.00000000e+00)
38              	bot_wall	(-2.18620470e-01 3.02004677e-17 0.00000000e+00)	(-2.18620470e-01 3.02004677e-17 0.00000000e+00)
38.5            	top_wall	(-2.18587179e-01 6.56378976e-22 0.00000000e+00)	(-2.18587179e-01 6.56378976e-22 0.00000000e+00)
38.5            	bot_wall	(-2.18587180e-01 3.85312678e-17 0.00000000e+00)	(-2.18587180e-01 3.85312678e-17 0.00000000e+00)
39              	top_wall	(-2.18556343e-01 2.31394434e-21 0.00000000e+00)	(-2.18556343e-01 2.31394434e-21 0.00000000e+00)
39              	bot_wall	(-2.18556344e-01 4.40868260e-17 0.00000000e+00)	(-2.18556344e-01 4.40868260e-17 0.00000000e+00)
39.5            	top_wall	(-2.18527731e-01 3.54848616e-22 0.00000000e+00)	(-2.18527731e-01 3.54848616e-22 0.00000000e+00)
39.5            	bot_wall	(-2.18527732e-01 3.21352845e-17 0.00000000e+00)	(-2.18527732e-01 3.21352845e-17 0.00000000e+00)
40              	top_wall	(-2.18501229e-01 8.38031573e-22 0.00000000e+00)	(-2.18501229e-01 8.38031573e-22 0.00000000e+00)
40              	bot_wall	(-2.18501231e-01 4.45809529e-17 0.00000000e+00)	(-2.18501231e-01 4.45809529e-17 0.00000000e+00)
40.5            	top_wall	(-2.18476658e-01 -2.81991194e-22 0.00000000e+00)	(-2.18476658e-01 -2.81991194e-22 0.00000000e+00)
40.5            	bot_wall	(-2.18476659e-01 3.70490683e-17 0.00000000e+00)	(-2.18476659e-01 3.70490683e-17 0.00000000e+00)
41              	top_wall	(-2.18453855e-01 -4.67332290e-22 0.00000000e+00)	(-2.18453855e-01 -4.67332290e-22 0.00000000e+00)
41              	bot_wall	(-2.18453856e-01 3.97668642e-17 0.00000000e+00)	(-2.18453856e-01 3.97668642e-17 0.00000000e+00)
41.5            	top_wall	(-2.18432761e-01 1.55710142e-21 0.00000000e+00)	(-2.18432761e-01 1.55710142e-21 0.00000000e+00)
41.5            	bot_wall	(-2.18432762e-01 3.53366525e-17 0.00000000e+00)	(-2.18432762e-01 3.53366525e-17 0.00000000e+00)
42              	top_wall	(-2.18413178e-01 -5.25204295e-22 0.00000000e+00)	(-2.18413178e-01 -5.25204295e-22 0.00000000e+00)
42              	bot_wall	(-2.18413179e-01 3.78322949e-17 0.00000000e+00)	(-2.18413179e-01 3.78322949e-17 0.00000000e+00)
42.5            	top_wall	(-2.18395028e-01 -3.18150927e-22 0.00000000e+00)	(-2.18395028e-01 -3.18150927e-22 0.00000000e+00)
42.5            	bot_wall	(-2.18395029e-01 3.76680132e-17 0.00000000e+00)	(-2.18395029e-01 3.76680132e-17 0.00000000e+00)
43              	top_wall	(-2.18378217e-01 -2.00718950e-21 0.00000000e+00)	(-2.18378217e-01 -2.00718950e-21 0.00000000e+00)
43              	bot_wall	(-2.18378218e-01 4.88496709e-17 0.00000000e+00)	(-2.18378218e-01 4.88496709e-17 0.00000000e+00)
43.5            	top_wall	(-2.18362607e-01 -5.58102242e-22 0.00000000e+00)	(-2.18362607e-01 -5.58102242e-22 0.00000000e+00)
43.5            	bot_wall	(-2.18362608e-01 3.54288717e-17 0.00000000e+00)	(-2.18362608e-01 3.54288717e-17 0.00000000e+00)
44              	top_wall	(-2.18348164e-01 -3.35040106e-22 0.00000000e+00)	(-2.18348164e-01 -3.35040106e-22 0.00000000e+00)
44              	bot_wall	(-2.18348166e-01 3.07090058e-17 0.00000000e+00)	(-2.18348166e-01 3.07090058e-17 0.00000000e+00)
44.5            	top_wall	(-2.18334766e-01 3.40911282e-22 0.00000000e+00)	(-2.18334766e-01 3.40911282e-22 0.00000000e+00)
44.5            	bot_wall	(-2.18334767e-01 3.34821118e-17 0.00000000e+00)	(-2.18334767e-01 3.34821118e-17 0.00000000e+00)
45              	top_wall	(-2.18322325e-01 -3.80786908e-22 0.00000000e+00)	(-2.18322325e-01 -3.80786908e-22 0.00000000e+00)
45              	bot_wall	(-2.18322326e-01 3.98362220e-17 0.00000000e+00)	(-2.18322326e-01 3.98362220e-17 0.00000000e+00)
45.5            	top_wall	(-2.18310831e-01 -3.15502658e-22 0.00000000e+00)	(-2.18310831e-01 -3.15502658e-22 0.00000000e+00)
45.5            	bot_wall	(-2.18310833e-01 3.68979926e-17 0.00000000e+00)	(-2.18310833e-01 3.68979926e-17 0.00000000e+00)
46              	top_wall	(-2.18300149e-01 3.42192260e-22 0.00000000e+00)	(-2.18300149e-01 3.42192260e-22 0.00000000e+00)
46              	bot_wall	(-2.18300150e-01 3.84279763e-17 0.00000000e+00)	(-2.18300150e-01 3.84279763e-17 0.00000000e+00)
46.5            	top_wall	(-2.18290251e-01 -1.41425029e-22 0.00000000e+00)	(-2.18290251e-01 -1.41425029e-22 0.00000000e+00)
46.5            	bot_wall	(-2.18290252e-01 4.36217906e-17 0.00000000e+00)	(-2.18290252e-01 4.36217906e-17 0.00000000e+00)
47              	top_wall	(-2.18281090e-01 -1.02503656e-21 0.00000000e+00)	(-2.18281090e-01 -1.02503656e-21 0.00000000e+00)
47              	bot_wall	(-2.18281091e-01 3.47242463e-17 0.00000000e+00)	(-2.18281091e-01 3.47242463e-17 0.00000000e+00)
47.5            	top_wall	(-2.18272571e-01 1.27016846e-21 0.00000000e+00)	(-2.18272571e-01 1.27016846e-21 0.00000000e+00)
47.5            	bot_wall	(-2.18272572e-01 2.97445447e-17 0.00000000e+00)	(-2.18272572e-01 2.97445447e-17 0.00000000e+00)
48              	top_wall	(-2.18264700e-01 -3.21521392e-22 0.00000000e+00)	(-2.18264700e-01 -3.21521392e-22 0.00000000e+00)
48              	bot_wall	(-2.18264701e-01 2.68935686e-17 0.00000000e+00)	(-2.18264701e-01 2.68935686e-17 0.00000000e+00)
48.5            	top_wall	(-2.18257396e-01 -1.08252221e-21 0.00000000e+00)	(-2.18257396e-01 -1.08252221e-21 0.00000000e+00)
48.5            	bot_wall	(-2.18257397e-01 2.82239086e-17 0.00000000e+00)	(-2.18257397e-01 2.82239086e-17 0.00000000e+00)
49              	top_wall	(-2.18250600e-01 -1.15421760e-22 0.00000000e+00)	(-2.18250600e-01 -1.15421760e-22 0.00000000e+00)
49              	bot_wall	(-2.18250601e-01 3.70456201e-17 0.00000000e+00)	(-2.18250601e-01 3.70456201e-17 0.00000000e+00)
49.5            	top_wall	(-2.18244344e-01 4.10178646e-22 0.00000000e+00)	(-2.18244344e-01 4.10178646e-22 0.00000000e+00)
49.5            	bot_wall	(-2.18244345e-01 3.67965746e-17 0.00000000e+00)	(-2.18244345e-01 3.67965746e-17 0.00000000e+00)
50              	top_wall	(-2.18238520e-01 -1.18573451e-21 0.00000000e+00)	(-2.18238520e-01 -1.18573451e-21 0.00000000e+00)
50              	bot_wall	(-2.18238521e-01 4.03523392e-17 0.00000000e+00)	(-2.18238521e-01 4.03523392e-17 0.00000000e+00)
50.5            	top_wall	(-2.18233112e-01 -1.68607785e-21 0.00000000e+00)	(-2.18233112e-01 -1.68607785e-21 0.00000000e+00)
50.5            	bot_wall	(-2.18233113e-01 3.17902173e-17 0.00000000e+00)	(-2.18233113e-01 3.17902173e-17 0.00000000e+00)
51              	top_wall	(-2.18228128e-01 2.29590402e-21 0.00000000e+00)	(-2.18228128e-01 2.29590402e-21 0.00000000e+00)
51              	bot_wall	(-2.18228129e-01 3.06978444e-17 0.00000000e+00)	(-2.18228129e-01 3.06978444e-17 0.00000000e+00)
51.5            	top_wall	(-2.18223482e-01 -4.00727146e-22 0.00000000e+00)	(-2.18223482e-01 -4.00727146e-22 0.00000000e+00)
51.5            	bot_wall	(-2.18223482e-01 3.53964664e-17 0.00000000e+00)	(-2.18223482e-01 3.53964664e-17 0.00000000e+00)
52              	top_wall	(-2.18219182e-01 -7.67311808e-23 0.00000000e+00)	(-2.18219182e-01 -7.67311808e-23 0.00000000e+00)
52              	bot_wall	(-2.18219183e-01 4.14929644e-17 0.00000000e+00)	(-2.18219183e-01 4.14929644e-17 0.00000000e+00)
52.5            	top_wall	(-2.18215210e-01 -7.12698059e-22 0.00000000e+00)	(-2.18215210e-01 -7.12698059e-22 0.00000000e+00)
52.5            	bot_wall	(-2.18215211e-01 4.26918113e-17 0.00000000e+00)	(-2.18215211e-01 4.26918113e-17 0.00000000e+00)
53              	top_wall	(-2.18211502e-01 -3.20453603e-22 0.00000000e+00)	(-2.18211502e-01 -3.20453603e-22 0.00000000e+00)
53              	bot_wall	(-2.18211503e-01 3.40126366e-17 0.00000000e+00)	(-2.18211503e-01 3.40126366e-17 0.00000000e+00)
53.5            	top_wall	(-2.18208084e-01 -7.07475654e-22 0.00000000e+00)	(-2.18208084e-01 -7.07475654e-22 0.00000000e+00)
53.5            	bot_wall	(-2.18208085e-01 3.69590555e-17 0.00000000e+00)	(-2.18208085e-01 3.69590555e-17 0.00000000e+00)
54              	top_wall	(-2.18204918e-01 -2.78624995e-21 0.00000000e+00)	(-2.18204918e-01 -2.78624995e-21 0.00000000e+00)
54              	bot_wall	(-2.18204919e-01 4.32696482e-17 0.00000000e+00)	(-2.18204919e-01 4.32696482e-17 0.00000000e+00)
54.5            	top_wall	(-2.18201959e-01 1.02004747e-21 0.00000000e+00)	(-2.18201959e-01 1.02004747e-21 0.00000000e+00)
54.5            	bot_wall	(-2.18201960e-01 2.76706044e-17 0.00000000e+00)	(-2.18201960e-01 2.76706044e-17 0.00000000e+00)
55              	top_wall	(-2.18199242e-01 9.22175723e-22 0.00000000e+00)	(-2.18199242e-01 9.22175723e-22 0.00000000e+00)
55              	bot_wall	(-2.18199243e-01 3.86022455e-17 0.00000000e+00)	(-2.18199243e-01 3.86022455e-17 0.00000000e+00)
55.5            	top_wall	(-2.18196721e-01 4.22384485e-22 0.00000000e+00)	(-2.18196721e-01 4.22384485e-22 0.00000000e+00)
55.5            	bot_wall	(-2.18196721e-01 3.84120348e-17 0.00000000e+00)	(-2.18196721e-01 3.84120348e-17 0.00000000e+00)
56              	top_wall	(-2.18194359e-01 -8.31695634e-22 0.00000000e+00)	(-2.18194359e-01 -8.31695634e-22 0.00000000e+00)
56              	bot_wall	(-2.18194360e-01 4.00748929e-17 0.00000000e+00)	(-2.18194360e-01 4.00748929e-17 0.00000000e+00)
56.5            	top_wall	(-2.18192198e-01 7.15611805e-23 0.00000000e+00)	(-2.18192198e-01 7.15611805e-23 0.00000000e+00)
56.5            	bot_wall	(-2.18192198e-01 3.91752330e-17 0.00000000e+00)	(-2.18192198e-01 3.91752330e-17 0.00000000e+00)
57              	top_wall	(-2.18190191e-01 -4.70238335e-22 0.00000000e+00)	(-2.18190191e-01 -4.70238335e-22 0.00000000e+00)
57              	bot_wall	(-2.18190192e-01 4.41251254e-17 0.00000000e+00)	(-2.18190192e-01 4.41251254e-17 0.00000000e+00)
57.5            	top_wall	(-2.18188307e-01 5.47647461e-23 0.00000000e+00)	(-2.18188307e-01 5.47647461e-23 0.00000000e+00)
57.5            	bot_wall	(-2.18188308e-01 4.00171765e-17 0.00000000e+00)	(-2.18188308e-01 4.00171765e-17 0.00000000e+00)
58              	top_wall	(-2.18186584e-01 -1.12843365e-21 0.00000000e+00)	(-2.18186584e-01 -1.12843365e-21 0.00000000e+00)
58              	bot_wall	(-2.18186584e-01 4.11169351e-17 0.00000000e+00)	(-2.18186584e-01 4.11169351e-17 0.00000000e+00)
58.5            	top_wall	(-2.18184990e-01 -9.96114647e-22 0.00000000e+00)	(-2.18184990e-01 -9.96114647e-22 0.00000000e+00)
58.5            	bot_wall	(-2.18184991e-01 4.58633823e-17 0.00000000e+00)	(-2.18184991e-01 4.58633823e-17 0.00000000e+00)
59              	top_wall	(-2.18183490e-01 -1.11583676e-21 0.00000000e+00)	(-2.18183490e-01 -1.11583676e-21 0.00000000e+00)
59              	bot_wall	(-2.18183491e-01 4.11853275e-17 0.00000000e+00)	(-2.18183491e-01 4.11853275e-17 0.00000000e+00)
59.5            	top_wall	(-2.18182106e-01 2.91564002e-22 0.00000000e+00)	(-2.18182106e-01 2.91564002e-22 0.00000000e+00)
59.5            	bot_wall	(-2.18182107e-01 4.08288095e-17 0.00000000e+00)	(-2.18182107e-01 4.08288095e-17 0.00000000e+00)
60              	top_wall	(-2.18180846e-01 1.09814113e-21 0.00000000e+00)	(-2.18180846e-01 1.09814113e-21 0.00000000e+00)
60              	bot_wall	(-2.18180846e-01 4.11581346e-17 0.00000000e+00)	(-2.18180846e-01 4.11581346e-17 0.00000000e+00)
60.5            	top_wall	(-2.18179656e-01 -1.02280051e-21 0.00000000e+00)	(-2.18179656e-01 -1.02280051e-21 0.00000000e+00)
60.5            	bot_wall	(-2.18179656e-01 4.19626344e-17 0.00000000e+00)	(-2.18179656e-01 4.19626344e-17 0.00000000e+00)
61              	top_wall	(-2.18178532e-01 -1.88433653e-21 0.00000000e+00)	(-2.18178532e-01 -1.88433653e-21 0.00000000e+00)
61              	bot_wall	(-2.18178533e-01 4.43196998e-17 0.00000000e+00)	(-2.18178533e-01 4.43196998e-17 0.00000000e+00)