/*--------------------------------*- C++ -*----------------------------------*\
| =========                 |                                                 |
| \\      /  F ield         | OpenFOAM: The Open Source CFD Toolbox           |
|  \\    /   O peration     | Version:  2312                                  |
|   \\  /    A nd           | Website:  www.openfoam.com                      |
|    \\/     M anipulation  |                                                 |
\*---------------------------------------------------------------------------*/
FoamFile
{
    version     2.0;
    format      ascii;
    arch        "LSB;label=32;scalar=64";
    class       volScalarField;
    location    "1.45";
    object      k;
}
// * * * * * * * * * * * * * * * * * * * * * * * * * * * * * * * * * * * * * //

dimensions      [0 2 -2 0 0 0 0];

internalField   nonuniform List<scalar> 
2000
(
0.000178695
4.50813e-05
0.000139231
0.000474804
0.0012027
0.00249581
0.00452661
0.00744645
0.0113612
0.0163069
0.0222339
0.029006
0.0364186
0.0442283
0.0521869
0.0600689
0.0676887
0.0749066
0.0816275
0.0877945
0.0933812
0.098384
0.102815
0.106697
0.110059
0.112933
0.115353
0.117353
0.118965
0.12022
0.121148
0.121775
0.122126
0.122226
0.122094
0.121752
0.121216
0.120504
0.11963
0.118609
0.117454
0.116178
0.11479
0.113302
0.111723
0.110063
0.10833
0.106532
0.104676
0.10277
0.10082
0.0988336
0.096816
0.0947734
0.0927112
0.090635
0.0885498
0.0864605
0.084372
0.0822888
0.0802153
0.0781558
0.0761142
0.0740946
0.0721007
0.0701361
0.0682042
0.0663083
0.0644516
0.062637
0.0608671
0.0591447
0.0574722
0.0558516
0.0542849
0.052774
0.0513204
0.0499252
0.0485897
0.0473144
0.0461
0.0449467
0.0438545
0.0428229
0.0418516
0.0409396
0.0400857
0.0392887
0.0385468
0.0378582
0.0372209
0.0366325
0.0360908
0.035593
0.0351365
0.0347185
0.0343363
0.0339868
0.0336673
0.0333749
0.0331067
0.0328599
0.032632
0.0324202
0.0322222
0.0320355
0.0318578
0.0316872
0.0315215
0.0313591
0.0311981
0.0310372
0.0308748
0.0307097
0.0305408
0.030367
0.0301876
0.0300017
0.0298087
0.0296081
0.0293994
0.0291823
0.0289566
0.028722
0.0284786
0.0282262
0.0279649
0.0276949
0.0274164
0.0271294
0.0268344
0.0265316
0.0262214
0.0259042
0.0255804
0.0252504
0.0249147
0.0245738
0.0242283
0.0238786
0.0235252
0.0231688
0.0228098
0.0224489
0.0220865
0.0217232
0.0213596
0.0209962
0.0206336
0.0202722
0.0199126
0.0195553
0.0192008
0.0188495
0.0185019
0.0181584
0.0178195
0.0174854
0.0171567
0.0168336
0.0165164
0.0162054
0.015901
0.0156033
0.0153126
0.015029
0.0147527
0.0144838
0.0142225
0.0139688
0.0137228
0.0134845
0.0132539
0.013031
0.0128157
0.0126081
0.012408
0.0122153
0.01203
0.0118518
0.0116807
0.0115165
0.011359
0.0112081
0.0110636
0.0109253
0.0107929
0.0106664
0.0105456
0.0104301
0.0103199
0.0102147
0.0101143
0.0100185
0.00992726
0.00984023
0.00975728
0.00967823
0.00960291
0.00953115
0.00946279
0.00939767
0.00933563
0.00927655
0.00922027
0.00916665
0.00911558
0.00906693
0.00902058
0.00897642
0.00893434
0.00889424
0.00885602
0.00881959
0.00878487
0.00875176
0.0087202
0.00869009
0.00866138
0.008634
0.00860787
0.00858295
0.00855916
0.00853646
0.00851479
0.00849411
0.00847436
0.0084555
0.0084375
0.0084203
0.00840388
0.00838819
0.0083732
0.00835888
0.0083452
0.00833213
0.00831964
0.0083077
0.00829629
0.00828539
0.00827496
0.008265
0.00825548
0.00824638
0.00823767
0.00822936
0.0082214
0.0082138
0.00820654
0.00819959
0.00819295
0.00818661
0.00818054
0.00817474
0.0081692
0.0081639
0.00815884
0.008154
0.00814938
0.00814497
0.00814075
0.00813671
0.00813286
0.00812918
0.00812567
0.00812231
0.00811911
0.00811604
0.00811312
0.00811033
0.00810767
0.00810513
0.0081027
0.00810038
0.00809817
0.00809607
0.00809406
0.00809214
0.00809031
0.00808857
0.0080869
0.00808532
0.00808381
0.00808237
0.00808099
0.00807969
0.00807844
0.00807726
0.00807613
0.00807505
0.00807403
0.00807305
0.00807212
0.00807124
0.0080704
0.0080696
0.00806884
0.00806812
0.00806743
0.00806677
0.00806615
0.00806556
0.008065
0.00806447
0.00806396
0.00806348
0.00806302
0.00806259
0.00806218
0.00806179
0.00806142
0.00806106
0.00806073
0.00806041
0.00806011
0.00805983
0.00805956
0.0080593
0.00805906
0.00805883
0.00805861
0.00805841
0.00805821
0.00805803
0.00805785
0.00805768
0.00805753
0.00805738
0.00805724
0.00805711
0.00805698
0.00805686
0.00805675
0.00805664
0.00805654
0.00805645
0.00805636
0.00805627
0.00805619
0.00805612
0.00805605
0.00805598
0.00805591
0.00805585
0.0080558
0.00805574
0.00805569
0.00805565
0.0080556
0.00805556
0.00805552
0.00805548
0.00805545
0.00805541
0.00805538
0.00805535
0.00805532
0.0080553
0.00805527
0.00805525
0.00805523
0.00805521
0.00805519
0.00805517
0.00805515
0.00805514
0.00805512
0.00805511
0.00805509
0.00805508
0.00805507
0.00805506
0.00805505
0.00805504
0.00805503
0.00805502
0.00805501
0.008055
0.008055
0.00805499
0.00805498
0.00805498
0.00805497
0.00805497
0.00805496
0.00805496
0.00805495
0.00805495
0.00805495
0.00805494
0.00805494
0.00805494
0.00805493
0.00805493
0.00805493
0.00805493
0.00805492
0.00805492
0.00805492
0.00805492
0.00805492
0.00805492
0.00805491
0.00805491
0.00805491
0.00805491
0.00805491
0.00805491
0.00805491
0.00805491
0.0080549
0.0080549
0.0080549
0.0080549
0.0080549
0.0080549
0.0080549
0.0080549
0.0080549
0.0080549
0.0080549
0.0080549
0.0080549
0.0080549
0.0080549
0.0080549
0.0080549
0.0080549
0.0080549
0.0080549
0.0080549
0.0080549
0.0080549
0.0080549
0.0080549
0.0080549
0.0080549
0.00805489
0.00805489
0.00805489
0.00805489
0.00805489
0.00805489
0.00805489
0.00805489
0.00805489
0.00805489
0.00805489
0.00805489
0.00805489
0.00805489
0.00805489
0.00805489
0.00805489
0.00805489
0.00805489
0.00805489
0.00805489
0.00805489
0.00805489
0.00805489
0.00805489
0.00805489
0.00805489
0.00805489
0.00805489
0.00805489
0.00805489
0.00805489
0.00805489
0.00805489
0.00805489
0.00805489
0.00805489
0.00805489
0.00805489
0.00805489
0.00805489
0.00805489
0.00805489
0.00805489
0.00805489
0.00805489
0.00805489
0.00805489
0.00805489
0.00805489
0.00805489
0.00805489
0.00805489
0.00805489
0.00805489
0.00805489
0.00805489
0.00805489
0.00805489
0.00805489
0.00805489
0.00805489
0.00805489
0.00805489
0.00805489
0.00805489
0.00805489
0.00805489
0.00805489
0.00805489
0.00805489
0.00805489
0.00805489
0.00805489
0.00805489
0.00805489
0.00805489
0.00805489
0.00805489
0.00805489
0.00805489
0.00805489
0.00805489
0.00805489
0.00805489
0.00805489
0.00805489
0.00805489
0.00805489
0.00805489
0.00805489
0.00805489
0.00805489
0.00805489
0.00805489
0.00805489
0.00805489
0.00805489
0.00805489
0.00805489
0.00805489
0.00805489
0.00805489
0.00805489
0.00805489
0.00805489
0.00805489
0.00805489
0.00805489
0.00805489
0.00805489
0.00805489
0.00805489
0.00805489
0.00805489
0.00805489
0.00805489
0.00805489
0.00805489
0.00805489
0.00805489
0.00805489
0.00805489
0.00805489
0.00805489
0.00805489
0.00805489
0.00805489
0.00805489
0.00805489
0.00805489
0.00805489
0.00805489
0.00805489
0.00805489
0.00805489
0.00805489
0.00805489
0.00805489
0.00805489
0.00805489
0.00805489
0.00805489
0.00805489
0.00805489
0.00805489
0.00805489
0.00805489
0.00805489
0.00805489
0.00805489
0.00805489
0.00805489
0.00805489
0.00805489
0.00805489
0.00805489
0.00805489
0.00805489
0.00805489
0.00805489
0.00805489
0.00805489
0.00805489
0.00805489
0.00805489
0.00805489
0.00805489
0.00805489
0.00805489
0.00805489
0.00805489
0.00805489
0.00805489
0.00805489
0.00805489
0.00805489
0.00805489
0.00805489
0.00805489
0.00805489
0.00805489
0.00805489
0.00805489
0.00805489
0.00805489
0.00805489
0.00805489
0.00805489
0.00805489
0.00805489
0.00805489
0.00805489
0.00805489
0.00805489
0.00805489
0.00805489
0.00805489
0.00805489
0.00805489
0.00805489
0.00805489
0.00805489
0.00805489
0.00805489
0.00805489
0.00805489
0.00805489
0.00805489
0.00805489
0.00805489
0.00805489
0.00805489
0.00805489
0.00805489
0.00805489
0.00805489
0.00805489
0.00805489
0.00805489
0.00805489
0.00805489
0.00805489
0.00805489
0.00805489
0.00805489
0.00805489
0.00805489
0.00805489
0.00805489
0.00805489
0.00805489
0.00805489
0.00805489
0.00805489
0.00805489
0.00805489
0.00805489
0.00805489
0.00805489
0.00805489
0.00805489
0.00805489
0.00805489
0.00805489
0.00805489
0.00805489
0.00805489
0.00805489
0.00805489
0.00805489
0.00805489
0.00805489
0.00805489
0.00805489
0.00805489
0.00805489
0.00805489
0.00805489
0.00805489
0.00805489
0.00805489
0.00805489
0.00805489
0.00805489
0.00805489
0.00805489
0.00805489
0.00805489
0.00805489
0.00805489
0.00805489
0.00805489
0.00805489
0.00805489
0.00805489
0.00805489
0.00805489
0.00805489
0.00805489
0.00805489
0.00805489
0.00805489
0.00805489
0.00805489
0.00805489
0.00805489
0.00805489
0.00805489
0.00805489
0.00805489
0.00805489
0.00805489
0.00805489
0.00805489
0.00805489
0.00805489
0.00805489
0.00805489
0.00805489
0.00805489
0.00805489
0.00805489
0.00805489
0.00805489
0.00805489
0.00805489
0.00805489
0.00805489
0.00805489
0.00805489
0.00805489
0.00805489
0.00805489
0.00805489
0.00805489
0.00805489
0.00805489
0.00805489
0.00805489
0.00805489
0.00805489
0.00805489
0.00805489
0.00805489
0.00805489
0.00805489
0.00805489
0.00805489
0.00805489
0.00805489
0.00805489
0.00805489
0.00805489
0.00805489
0.00805489
0.00805489
0.00805489
0.00805489
0.00805489
0.00805489
0.00805489
0.00805489
0.00805489
0.00805489
0.00805489
0.00805489
0.00805489
0.00805489
0.00805489
0.00805489
0.00805489
0.00805489
0.00805489
0.00805489
0.00805489
0.00805489
0.00805489
0.00805489
0.00805489
0.00805489
0.00805489
0.00805489
0.00805489
0.00805489
0.00805489
0.00805489
0.00805489
0.00805489
0.00805489
0.00805489
0.00805489
0.00805489
0.00805489
0.00805489
0.00805489
0.00805489
0.00805489
0.00805489
0.00805489
0.00805489
0.00805489
0.00805489
0.00805489
0.00805489
0.00805489
0.00805489
0.00805489
0.00805489
0.00805489
0.00805489
0.00805489
0.00805489
0.00805489
0.00805489
0.00805489
0.00805489
0.00805489
0.00805489
0.00805489
0.00805489
0.00805489
0.00805489
0.00805489
0.00805489
0.00805489
0.00805489
0.00805489
0.00805489
0.00805489
0.00805489
0.00805489
0.00805489
0.00805489
0.00805489
0.00805489
0.00805489
0.00805489
0.00805489
0.00805489
0.00805489
0.00805489
0.00805489
0.00805489
0.00805489
0.00805489
0.00805489
0.00805489
0.00805489
0.00805489
0.00805489
0.00805489
0.00805489
0.00805489
0.00805489
0.00805489
0.00805489
0.00805489
0.00805489
0.00805489
0.00805489
0.00805489
0.00805489
0.00805489
0.00805489
0.00805489
0.00805489
0.00805489
0.00805489
0.00805489
0.00805489
0.00805489
0.00805489
0.00805489
0.00805489
0.00805489
0.00805489
0.00805489
0.00805489
0.00805489
0.00805489
0.00805489
0.00805489
0.00805489
0.00805489
0.00805489
0.00805489
0.00805489
0.00805489
0.00805489
0.00805489
0.00805489
0.00805489
0.00805489
0.00805489
0.00805489
0.00805489
0.00805489
0.00805489
0.00805489
0.00805489
0.00805489
0.00805489
0.00805489
0.00805489
0.00805489
0.00805489
0.00805489
0.00805489
0.00805489
0.00805489
0.00805489
0.00805489
0.00805489
0.00805489
0.00805489
0.00805489
0.00805489
0.00805489
0.00805489
0.00805489
0.00805489
0.00805489
0.00805489
0.00805489
0.00805489
0.00805489
0.00805489
0.00805489
0.00805489
0.00805489
0.00805489
0.00805489
0.00805489
0.00805489
0.00805489
0.00805489
0.00805489
0.00805489
0.00805489
0.00805489
0.00805489
0.00805489
0.00805489
0.00805489
0.00805489
0.00805489
0.00805489
0.00805489
0.00805489
0.00805489
0.00805489
0.00805489
0.00805489
0.00805489
0.00805489
0.00805489
0.00805489
0.00805489
0.00805489
0.00805489
0.00805489
0.00805489
0.00805489
0.00805489
0.00805489
0.00805489
0.00805489
0.00805489
0.00805489
0.00805489
0.00805489
0.00805489
0.00805489
0.00805489
0.00805489
0.00805489
0.00805489
0.00805489
0.00805489
0.00805489
0.00805489
0.00805489
0.00805489
0.00805489
0.00805489
0.00805489
0.00805489
0.00805489
0.00805489
0.00805489
0.00805489
0.00805489
0.00805489
0.00805489
0.00805489
0.00805489
0.00805489
0.00805489
0.00805489
0.00805489
0.00805489
0.00805489
0.00805489
0.00805489
0.00805489
0.00805489
0.00805489
0.00805489
0.00805489
0.00805489
0.00805489
0.00805489
0.00805489
0.00805489
0.00805489
0.00805489
0.00805489
0.00805489
0.00805489
0.00805489
0.00805489
0.00805489
0.00805489
0.00805489
0.00805489
0.00805489
0.00805489
0.00805489
0.00805489
0.00805489
0.00805489
0.00805489
0.00805489
0.00805489
0.00805489
0.00805489
0.00805489
0.00805489
0.00805489
0.00805489
0.00805489
0.00805489
0.00805489
0.00805489
0.00805489
0.00805489
0.00805489
0.00805489
0.00805489
0.00805489
0.00805489
0.00805489
0.00805489
0.00805489
0.00805489
0.00805489
0.00805489
0.00805489
0.00805489
0.00805489
0.00805489
0.00805489
0.00805489
0.00805489
0.00805489
0.00805489
0.00805489
0.00805489
0.00805489
0.00805489
0.00805489
0.00805489
0.00805489
0.00805489
0.00805489
0.00805489
0.00805489
0.00805489
0.00805489
0.00805489
0.00805489
0.00805489
0.00805489
0.00805489
0.00805489
0.00805489
0.00805489
0.00805489
0.00805489
0.00805489
0.00805489
0.00805489
0.00805489
0.00805489
0.00805489
0.00805489
0.00805489
0.00805489
0.00805489
0.00805489
0.00805489
0.00805489
0.00805489
0.00805489
0.00805489
0.00805489
0.00805489
0.00805489
0.00805489
0.00805489
0.00805489
0.00805489
0.00805489
0.00805489
0.00805489
0.00805489
0.00805489
0.00805489
0.00805489
0.00805489
0.00805489
0.00805489
0.00805489
0.00805489
0.00805489
0.00805489
0.00805489
0.00805489
0.00805489
0.00805489
0.00805489
0.00805489
0.00805489
0.00805489
0.00805489
0.00805489
0.00805489
0.00805489
0.00805489
0.00805489
0.00805489
0.00805489
0.00805489
0.00805489
0.00805489
0.00805489
0.00805489
0.00805489
0.00805489
0.00805489
0.00805489
0.00805489
0.00805489
0.00805489
0.00805489
0.00805489
0.00805489
0.00805489
0.00805489
0.00805489
0.00805489
0.00805489
0.00805489
0.00805489
0.00805489
0.00805489
0.00805489
0.00805489
0.00805489
0.00805489
0.00805489
0.00805489
0.00805489
0.00805489
0.00805489
0.00805489
0.00805489
0.00805489
0.00805489
0.00805489
0.00805489
0.00805489
0.00805489
0.00805489
0.00805489
0.00805489
0.00805489
0.00805489
0.00805489
0.00805489
0.00805489
0.00805489
0.00805489
0.00805489
0.00805489
0.00805489
0.00805489
0.00805489
0.00805489
0.00805489
0.00805489
0.00805489
0.00805489
0.00805489
0.00805489
0.00805489
0.00805489
0.00805489
0.00805489
0.00805489
0.00805489
0.00805489
0.00805489
0.00805489
0.00805489
0.00805489
0.00805489
0.00805489
0.00805489
0.00805489
0.00805489
0.00805489
0.00805489
0.00805489
0.00805489
0.00805489
0.00805489
0.00805489
0.00805489
0.00805489
0.00805489
0.00805489
0.00805489
0.00805489
0.00805489
0.00805489
0.00805489
0.00805489
0.00805489
0.00805489
0.00805489
0.00805489
0.00805489
0.00805489
0.00805489
0.00805489
0.00805489
0.00805489
0.00805489
0.00805489
0.00805489
0.00805489
0.00805489
0.00805489
0.00805489
0.00805489
0.00805489
0.00805489
0.00805489
0.00805489
0.00805489
0.00805489
0.00805489
0.00805489
0.00805489
0.00805489
0.00805489
0.00805489
0.00805489
0.00805489
0.00805489
0.00805489
0.00805489
0.00805489
0.00805489
0.00805489
0.00805489
0.00805489
0.00805489
0.00805489
0.00805489
0.00805489
0.00805489
0.00805489
0.00805489
0.00805489
0.00805489
0.00805489
0.00805489
0.00805489
0.00805489
0.00805489
0.00805489
0.00805489
0.00805489
0.00805489
0.00805489
0.00805489
0.00805489
0.00805489
0.00805489
0.00805489
0.00805489
0.00805489
0.00805489
0.00805489
0.00805489
0.00805489
0.00805489
0.00805489
0.00805489
0.00805489
0.00805489
0.00805489
0.00805489
0.00805489
0.00805489
0.00805489
0.00805489
0.00805489
0.00805489
0.00805489
0.00805489
0.00805489
0.00805489
0.00805489
0.00805489
0.00805489
0.00805489
0.00805489
0.00805489
0.00805489
0.00805489
0.00805489
0.00805489
0.00805489
0.00805489
0.00805489
0.00805489
0.00805489
0.00805489
0.00805489
0.00805489
0.00805489
0.00805489
0.00805489
0.00805489
0.00805489
0.00805489
0.00805489
0.00805489
0.00805489
0.00805489
0.00805489
0.00805489
0.00805489
0.00805489
0.00805489
0.00805489
0.00805489
0.00805489
0.00805489
0.00805489
0.00805489
0.00805489
0.00805489
0.00805489
0.00805489
0.00805489
0.00805489
0.00805489
0.00805489
0.00805489
0.00805489
0.00805489
0.00805489
0.00805489
0.00805489
0.00805489
0.00805489
0.00805489
0.00805489
0.00805489
0.00805489
0.00805489
0.00805489
0.00805489
0.00805489
0.00805489
0.00805489
0.00805489
0.00805489
0.00805489
0.00805489
0.00805489
0.00805489
0.00805489
0.00805489
0.00805489
0.00805489
0.00805489
0.00805489
0.00805489
0.00805489
0.00805489
0.00805489
0.00805489
0.00805489
0.00805489
0.00805489
0.00805489
0.00805489
0.00805489
0.00805489
0.00805489
0.00805489
0.00805489
0.00805489
0.00805489
0.00805489
0.00805489
0.00805489
0.00805489
0.00805489
0.00805489
0.00805489
0.00805489
0.00805489
0.00805489
0.00805489
0.00805489
0.00805489
0.00805489
0.00805489
0.00805489
0.00805489
0.00805489
0.00805489
0.00805489
0.00805489
0.00805489
0.00805489
0.00805489
0.00805489
0.00805489
0.00805489
0.00805489
0.00805489
0.00805489
0.00805489
0.00805489
0.00805489
0.00805489
0.00805489
0.00805489
0.00805489
0.00805489
0.00805489
0.00805489
0.00805489
0.00805489
0.00805489
0.00805489
0.00805489
0.00805489
0.00805489
0.00805489
0.00805489
0.00805489
0.00805489
0.00805489
0.00805489
0.00805489
0.00805489
0.00805489
0.00805489
0.00805489
0.00805489
0.00805489
0.00805489
0.00805489
0.00805489
0.00805489
0.00805489
0.00805489
0.00805489
0.00805489
0.00805489
0.00805489
0.00805489
0.00805489
0.00805489
0.00805489
0.00805489
0.00805489
0.00805489
0.00805489
0.00805489
0.00805489
0.00805489
0.00805489
0.00805489
0.00805489
0.00805489
0.00805489
0.00805489
0.00805489
0.00805489
0.00805489
0.00805489
0.00805489
0.00805489
0.00805489
0.00805489
0.00805489
0.00805489
0.00805489
0.00805489
0.00805489
0.00805489
0.00805489
0.00805489
0.00805489
0.00805489
0.00805489
0.00805489
0.00805489
0.00805489
0.00805489
0.00805489
0.00805489
0.00805489
0.00805489
0.00805489
0.00805489
0.00805489
0.00805489
0.00805489
0.00805489
0.00805489
0.00805489
0.00805489
0.00805489
0.00805489
0.00805489
0.0080549
0.0080549
0.0080549
0.0080549
0.0080549
0.0080549
0.0080549
0.0080549
0.0080549
0.0080549
0.0080549
0.0080549
0.0080549
0.0080549
0.0080549
0.0080549
0.0080549
0.0080549
0.0080549
0.0080549
0.0080549
0.0080549
0.0080549
0.0080549
0.0080549
0.0080549
0.0080549
0.00805491
0.00805491
0.00805491
0.00805491
0.00805491
0.00805491
0.00805491
0.00805491
0.00805492
0.00805492
0.00805492
0.00805492
0.00805492
0.00805492
0.00805493
0.00805493
0.00805493
0.00805493
0.00805494
0.00805494
0.00805494
0.00805495
0.00805495
0.00805495
0.00805496
0.00805496
0.00805497
0.00805497
0.00805498
0.00805498
0.00805499
0.008055
0.008055
0.00805501
0.00805502
0.00805503
0.00805504
0.00805505
0.00805506
0.00805507
0.00805508
0.00805509
0.00805511
0.00805512
0.00805514
0.00805515
0.00805517
0.00805519
0.00805521
0.00805523
0.00805525
0.00805527
0.0080553
0.00805532
0.00805535
0.00805538
0.00805541
0.00805545
0.00805548
0.00805552
0.00805556
0.0080556
0.00805565
0.00805569
0.00805574
0.0080558
0.00805585
0.00805591
0.00805598
0.00805605
0.00805612
0.00805619
0.00805627
0.00805636
0.00805645
0.00805654
0.00805664
0.00805675
0.00805686
0.00805698
0.00805711
0.00805724
0.00805738
0.00805753
0.00805768
0.00805785
0.00805803
0.00805821
0.00805841
0.00805861
0.00805883
0.00805906
0.0080593
0.00805956
0.00805983
0.00806011
0.00806041
0.00806073
0.00806106
0.00806142
0.00806179
0.00806218
0.00806259
0.00806302
0.00806348
0.00806396
0.00806447
0.008065
0.00806556
0.00806615
0.00806677
0.00806743
0.00806812
0.00806884
0.0080696
0.0080704
0.00807124
0.00807212
0.00807305
0.00807403
0.00807505
0.00807613
0.00807726
0.00807844
0.00807969
0.00808099
0.00808237
0.00808381
0.00808532
0.0080869
0.00808857
0.00809031
0.00809214
0.00809406
0.00809607
0.00809818
0.00810038
0.0081027
0.00810513
0.00810767
0.00811033
0.00811312
0.00811605
0.00811911
0.00812231
0.00812567
0.00812918
0.00813286
0.00813671
0.00814075
0.00814497
0.00814938
0.00815401
0.00815884
0.00816391
0.0081692
0.00817474
0.00818054
0.00818661
0.00819295
0.00819959
0.00820654
0.00821381
0.00822141
0.00822936
0.00823768
0.00824638
0.00825548
0.008265
0.00827497
0.00828539
0.00829629
0.0083077
0.00831964
0.00833213
0.00834521
0.00835889
0.00837321
0.00838819
0.00840388
0.00842031
0.0084375
0.00845551
0.00847436
0.00849411
0.00851479
0.00853646
0.00855916
0.00858295
0.00860788
0.008634
0.00866139
0.0086901
0.0087202
0.00875177
0.00878487
0.0088196
0.00885603
0.00889424
0.00893434
0.00897642
0.00902058
0.00906694
0.00911559
0.00916666
0.00922027
0.00927655
0.00933564
0.00939767
0.00946279
0.00953116
0.00960292
0.00967824
0.00975728
0.00984023
0.00992726
0.0100186
0.0101143
0.0102147
0.0103199
0.0104301
0.0105456
0.0106664
0.0107929
0.0109253
0.0110636
0.0112081
0.011359
0.0115165
0.0116807
0.0118518
0.01203
0.0122153
0.012408
0.0126081
0.0128157
0.013031
0.0132539
0.0134845
0.0137228
0.0139688
0.0142225
0.0144838
0.0147527
0.015029
0.0153126
0.0156033
0.015901
0.0162054
0.0165164
0.0168336
0.0171567
0.0174854
0.0178195
0.0181584
0.0185019
0.0188495
0.0192008
0.0195553
0.0199126
0.0202722
0.0206336
0.0209962
0.0213596
0.0217232
0.0220865
0.0224489
0.0228098
0.0231688
0.0235252
0.0238786
0.0242283
0.0245739
0.0249147
0.0252504
0.0255804
0.0259042
0.0262214
0.0265316
0.0268344
0.0271294
0.0274164
0.0276949
0.0279649
0.0282262
0.0284786
0.028722
0.0289566
0.0291823
0.0293994
0.0296081
0.0298087
0.0300017
0.0301876
0.0303671
0.0305408
0.0307097
0.0308748
0.0310372
0.0311982
0.0313591
0.0315216
0.0316872
0.0318579
0.0320355
0.0322222
0.0324203
0.032632
0.03286
0.0331067
0.0333749
0.0336673
0.0339869
0.0343363
0.0347186
0.0351365
0.035593
0.0360908
0.0366326
0.0372209
0.0378582
0.0385468
0.0392887
0.0400857
0.0409396
0.0418516
0.0428229
0.0438545
0.0449467
0.0461
0.0473144
0.0485896
0.0499252
0.0513204
0.052774
0.0542849
0.0558515
0.0574721
0.0591447
0.0608671
0.0626369
0.0644516
0.0663083
0.0682042
0.070136
0.0721006
0.0740946
0.0761142
0.0781557
0.0802153
0.0822888
0.084372
0.0864605
0.0885497
0.0906349
0.0927112
0.0947733
0.096816
0.0988335
0.10082
0.10277
0.104676
0.106531
0.10833
0.110063
0.111723
0.113302
0.11479
0.116178
0.117454
0.118609
0.11963
0.120503
0.121216
0.121752
0.122094
0.122226
0.122126
0.121775
0.121148
0.12022
0.118965
0.117353
0.115353
0.112933
0.110059
0.106697
0.102815
0.0983839
0.0933812
0.0877944
0.0816274
0.0749066
0.0676887
0.0600689
0.0521868
0.0442283
0.0364186
0.029006
0.0222338
0.0163069
0.0113612
0.00744644
0.00452661
0.00249581
0.0012027
0.000474804
0.000139231
4.50813e-05
0.000178695
)
;

boundaryField
{
    top_wall
    {
        type            kLowReWallFunction;
        value           uniform 2.67017e-10;
    }
    inlet
    {
        type            cyclic;
    }
    bot_wall
    {
        type            kLowReWallFunction;
        value           uniform 2.67017e-10;
    }
    outlet
    {
        type            cyclic;
    }
    frontAndBack
    {
        type            empty;
    }
}


// ************************************************************************* //
