/*--------------------------------*- C++ -*----------------------------------*\
| =========                 |                                                 |
| \\      /  F ield         | OpenFOAM: The Open Source CFD Toolbox           |
|  \\    /   O peration     | Version:  2312                                  |
|   \\  /    A nd           | Website:  www.openfoam.com                      |
|    \\/     M anipulation  |                                                 |
\*---------------------------------------------------------------------------*/
FoamFile
{
    version     2.0;
    format      ascii;
    arch        "LSB;label=32;scalar=64";
    class       volScalarField;
    location    "1.45";
    object      nut;
}
// * * * * * * * * * * * * * * * * * * * * * * * * * * * * * * * * * * * * * //

dimensions      [0 2 -1 0 0 0 0];

internalField   nonuniform List<scalar> 
2000
(
2.30372e-11
3.31197e-11
2.97514e-10
2.11503e-09
9.25889e-09
2.94864e-08
7.55549e-08
1.65095e-07
3.18904e-07
5.57854e-07
8.99314e-07
1.35433e-06
1.92642e-06
2.61204e-06
3.40221e-06
4.28459e-06
5.24525e-06
6.2701e-06
7.34578e-06
8.46007e-06
9.60218e-06
1.07627e-05
1.19334e-05
1.31074e-05
1.42788e-05
1.54426e-05
1.65945e-05
1.77309e-05
1.8849e-05
1.9946e-05
2.10201e-05
2.20694e-05
2.30925e-05
2.40884e-05
2.50561e-05
2.59949e-05
2.69045e-05
2.77843e-05
2.86343e-05
2.94543e-05
3.02445e-05
3.10051e-05
3.17361e-05
3.24381e-05
3.31115e-05
3.37566e-05
3.43741e-05
3.49647e-05
3.55289e-05
3.60676e-05
3.65814e-05
3.70714e-05
3.75384e-05
3.79833e-05
3.84072e-05
3.88111e-05
3.91962e-05
3.95636e-05
3.99147e-05
4.02506e-05
4.05729e-05
4.08829e-05
4.11821e-05
4.14723e-05
4.1755e-05
4.20321e-05
4.23055e-05
4.2577e-05
4.28489e-05
4.31232e-05
4.34023e-05
4.36885e-05
4.39844e-05
4.42926e-05
4.46157e-05
4.49567e-05
4.53183e-05
4.57037e-05
4.61159e-05
4.6558e-05
4.70332e-05
4.75446e-05
4.80955e-05
4.86889e-05
4.93279e-05
5.00156e-05
5.07548e-05
5.15481e-05
5.23983e-05
5.33075e-05
5.42778e-05
5.53112e-05
5.64092e-05
5.75732e-05
5.88041e-05
6.01028e-05
6.14697e-05
6.29051e-05
6.4409e-05
6.59811e-05
6.76209e-05
6.9328e-05
7.11015e-05
7.29405e-05
7.48441e-05
7.68113e-05
7.88409e-05
8.0932e-05
8.30834e-05
8.52941e-05
8.75632e-05
8.98897e-05
9.22729e-05
9.4712e-05
9.72064e-05
9.97557e-05
0.00010236
0.000105018
0.000107731
0.000110498
0.00011332
0.000116198
0.000119131
0.000122121
0.00012517
0.000128277
0.000131445
0.000134676
0.00013797
0.000141331
0.000144761
0.000148261
0.000151835
0.000155487
0.000159218
0.000163033
0.000166936
0.000170931
0.000175021
0.000179213
0.000183511
0.00018792
0.000192446
0.000197096
0.000201875
0.000206791
0.000211852
0.000217064
0.000222435
0.000227976
0.000233694
0.000239599
0.000245701
0.00025201
0.000258538
0.000265296
0.000272295
0.000279548
0.000287068
0.000294869
0.000302962
0.000311363
0.000320086
0.000329146
0.000338557
0.000348334
0.000358493
0.000369048
0.000380015
0.000391409
0.000403246
0.000415538
0.0004283
0.000441547
0.00045529
0.000469542
0.000484314
0.000499616
0.000515457
0.000531845
0.000548785
0.000566284
0.000584344
0.000602966
0.000622151
0.000641895
0.000662196
0.000683048
0.000704442
0.000726368
0.000748816
0.00077177
0.000795216
0.000819135
0.000843509
0.000868316
0.000893534
0.000919138
0.000945102
0.000971401
0.000998005
0.00102489
0.00105201
0.00107936
0.00110688
0.00113457
0.00116237
0.00119026
0.0012182
0.00124618
0.00127414
0.00130207
0.00132993
0.00135768
0.00138531
0.00141279
0.00144008
0.00146715
0.001494
0.00152058
0.00154687
0.00157287
0.00159853
0.00162385
0.00164881
0.00167339
0.00169757
0.00172134
0.00174469
0.00176761
0.00179009
0.00181211
0.00183368
0.00185478
0.00187541
0.00189556
0.00191524
0.00193444
0.00195315
0.00197139
0.00198915
0.00200643
0.00202323
0.00203956
0.00205542
0.00207082
0.00208576
0.00210025
0.00211429
0.00212789
0.00214105
0.00215379
0.00216611
0.00217802
0.00218953
0.00220064
0.00221137
0.00222172
0.0022317
0.00224133
0.0022506
0.00225954
0.00226814
0.00227642
0.00228438
0.00229204
0.00229941
0.00230648
0.00231328
0.00231981
0.00232608
0.0023321
0.00233787
0.0023434
0.00234871
0.0023538
0.00235867
0.00236334
0.00236781
0.00237208
0.00237618
0.00238009
0.00238384
0.00238742
0.00239085
0.00239412
0.00239724
0.00240023
0.00240308
0.0024058
0.0024084
0.00241088
0.00241324
0.0024155
0.00241765
0.0024197
0.00242165
0.00242351
0.00242528
0.00242697
0.00242858
0.00243011
0.00243156
0.00243295
0.00243426
0.00243552
0.00243671
0.00243784
0.00243891
0.00243994
0.00244091
0.00244183
0.00244271
0.00244354
0.00244433
0.00244508
0.00244579
0.00244646
0.0024471
0.00244771
0.00244828
0.00244883
0.00244935
0.00244984
0.0024503
0.00245074
0.00245115
0.00245155
0.00245192
0.00245227
0.00245261
0.00245292
0.00245322
0.0024535
0.00245377
0.00245402
0.00245426
0.00245449
0.0024547
0.0024549
0.00245509
0.00245527
0.00245544
0.0024556
0.00245575
0.00245589
0.00245603
0.00245615
0.00245627
0.00245639
0.00245649
0.00245659
0.00245669
0.00245677
0.00245686
0.00245694
0.00245701
0.00245708
0.00245715
0.00245721
0.00245727
0.00245732
0.00245737
0.00245742
0.00245747
0.00245751
0.00245755
0.00245759
0.00245762
0.00245766
0.00245769
0.00245772
0.00245775
0.00245777
0.0024578
0.00245782
0.00245784
0.00245786
0.00245788
0.0024579
0.00245791
0.00245793
0.00245794
0.00245796
0.00245797
0.00245798
0.00245799
0.002458
0.00245801
0.00245802
0.00245803
0.00245804
0.00245805
0.00245805
0.00245806
0.00245807
0.00245807
0.00245808
0.00245808
0.00245809
0.00245809
0.0024581
0.0024581
0.0024581
0.00245811
0.00245811
0.00245811
0.00245812
0.00245812
0.00245812
0.00245812
0.00245813
0.00245813
0.00245813
0.00245813
0.00245813
0.00245813
0.00245814
0.00245814
0.00245814
0.00245814
0.00245814
0.00245814
0.00245814
0.00245814
0.00245814
0.00245814
0.00245814
0.00245815
0.00245815
0.00245815
0.00245815
0.00245815
0.00245815
0.00245815
0.00245815
0.00245815
0.00245815
0.00245815
0.00245815
0.00245815
0.00245815
0.00245815
0.00245815
0.00245815
0.00245815
0.00245815
0.00245815
0.00245815
0.00245815
0.00245815
0.00245815
0.00245815
0.00245815
0.00245815
0.00245815
0.00245815
0.00245815
0.00245815
0.00245815
0.00245815
0.00245815
0.00245815
0.00245815
0.00245815
0.00245815
0.00245815
0.00245815
0.00245815
0.00245815
0.00245815
0.00245815
0.00245815
0.00245815
0.00245815
0.00245815
0.00245815
0.00245815
0.00245815
0.00245815
0.00245815
0.00245815
0.00245815
0.00245815
0.00245815
0.00245815
0.00245815
0.00245815
0.00245815
0.00245815
0.00245815
0.00245815
0.00245815
0.00245815
0.00245815
0.00245815
0.00245815
0.00245815
0.00245815
0.00245815
0.00245815
0.00245815
0.00245815
0.00245815
0.00245815
0.00245815
0.00245815
0.00245815
0.00245815
0.00245815
0.00245815
0.00245815
0.00245815
0.00245815
0.00245815
0.00245815
0.00245815
0.00245815
0.00245815
0.00245815
0.00245815
0.00245815
0.00245815
0.00245815
0.00245815
0.00245815
0.00245815
0.00245815
0.00245815
0.00245815
0.00245815
0.00245815
0.00245815
0.00245815
0.00245815
0.00245815
0.00245815
0.00245815
0.00245815
0.00245815
0.00245815
0.00245815
0.00245815
0.00245815
0.00245815
0.00245815
0.00245815
0.00245815
0.00245815
0.00245815
0.00245815
0.00245815
0.00245815
0.00245815
0.00245815
0.00245815
0.00245815
0.00245815
0.00245815
0.00245815
0.00245815
0.00245815
0.00245815
0.00245815
0.00245815
0.00245815
0.00245815
0.00245815
0.00245815
0.00245815
0.00245815
0.00245815
0.00245815
0.00245815
0.00245815
0.00245815
0.00245815
0.00245815
0.00245815
0.00245815
0.00245815
0.00245815
0.00245815
0.00245815
0.00245815
0.00245815
0.00245815
0.00245815
0.00245815
0.00245815
0.00245815
0.00245815
0.00245815
0.00245815
0.00245815
0.00245815
0.00245815
0.00245815
0.00245815
0.00245815
0.00245815
0.00245815
0.00245815
0.00245815
0.00245815
0.00245815
0.00245815
0.00245815
0.00245815
0.00245815
0.00245815
0.00245815
0.00245815
0.00245815
0.00245815
0.00245815
0.00245815
0.00245815
0.00245815
0.00245815
0.00245815
0.00245815
0.00245815
0.00245815
0.00245815
0.00245815
0.00245815
0.00245815
0.00245815
0.00245815
0.00245815
0.00245815
0.00245815
0.00245815
0.00245815
0.00245815
0.00245815
0.00245815
0.00245815
0.00245815
0.00245815
0.00245815
0.00245815
0.00245815
0.00245815
0.00245815
0.00245815
0.00245815
0.00245815
0.00245815
0.00245815
0.00245815
0.00245815
0.00245815
0.00245815
0.00245815
0.00245815
0.00245815
0.00245815
0.00245815
0.00245815
0.00245815
0.00245815
0.00245815
0.00245815
0.00245815
0.00245815
0.00245815
0.00245815
0.00245815
0.00245815
0.00245815
0.00245815
0.00245815
0.00245815
0.00245815
0.00245815
0.00245815
0.00245815
0.00245815
0.00245815
0.00245815
0.00245815
0.00245815
0.00245815
0.00245815
0.00245815
0.00245815
0.00245815
0.00245815
0.00245815
0.00245815
0.00245815
0.00245815
0.00245815
0.00245815
0.00245815
0.00245815
0.00245815
0.00245815
0.00245815
0.00245815
0.00245815
0.00245815
0.00245815
0.00245815
0.00245815
0.00245815
0.00245815
0.00245815
0.00245815
0.00245815
0.00245815
0.00245815
0.00245815
0.00245815
0.00245815
0.00245815
0.00245815
0.00245815
0.00245815
0.00245815
0.00245815
0.00245815
0.00245815
0.00245815
0.00245815
0.00245815
0.00245815
0.00245815
0.00245815
0.00245815
0.00245815
0.00245815
0.00245815
0.00245815
0.00245815
0.00245815
0.00245815
0.00245815
0.00245815
0.00245815
0.00245815
0.00245815
0.00245815
0.00245815
0.00245815
0.00245815
0.00245815
0.00245815
0.00245815
0.00245815
0.00245815
0.00245815
0.00245815
0.00245815
0.00245815
0.00245815
0.00245815
0.00245815
0.00245815
0.00245815
0.00245815
0.00245815
0.00245815
0.00245815
0.00245815
0.00245815
0.00245815
0.00245815
0.00245815
0.00245815
0.00245815
0.00245815
0.00245815
0.00245815
0.00245815
0.00245815
0.00245815
0.00245815
0.00245815
0.00245815
0.00245815
0.00245815
0.00245815
0.00245815
0.00245815
0.00245815
0.00245815
0.00245815
0.00245815
0.00245815
0.00245815
0.00245815
0.00245815
0.00245815
0.00245815
0.00245815
0.00245815
0.00245815
0.00245815
0.00245815
0.00245815
0.00245815
0.00245815
0.00245815
0.00245815
0.00245815
0.00245815
0.00245815
0.00245815
0.00245815
0.00245815
0.00245815
0.00245815
0.00245815
0.00245815
0.00245815
0.00245815
0.00245815
0.00245815
0.00245815
0.00245815
0.00245815
0.00245815
0.00245815
0.00245815
0.00245815
0.00245815
0.00245815
0.00245815
0.00245815
0.00245815
0.00245815
0.00245815
0.00245815
0.00245815
0.00245815
0.00245815
0.00245815
0.00245815
0.00245815
0.00245815
0.00245815
0.00245815
0.00245815
0.00245815
0.00245815
0.00245815
0.00245815
0.00245815
0.00245815
0.00245815
0.00245815
0.00245815
0.00245815
0.00245815
0.00245815
0.00245815
0.00245815
0.00245815
0.00245815
0.00245815
0.00245815
0.00245815
0.00245815
0.00245815
0.00245815
0.00245815
0.00245815
0.00245815
0.00245815
0.00245815
0.00245815
0.00245815
0.00245815
0.00245815
0.00245815
0.00245815
0.00245815
0.00245815
0.00245815
0.00245815
0.00245815
0.00245815
0.00245815
0.00245815
0.00245815
0.00245815
0.00245815
0.00245815
0.00245815
0.00245815
0.00245815
0.00245815
0.00245815
0.00245815
0.00245815
0.00245815
0.00245815
0.00245815
0.00245815
0.00245815
0.00245815
0.00245815
0.00245815
0.00245815
0.00245815
0.00245815
0.00245815
0.00245815
0.00245815
0.00245815
0.00245815
0.00245815
0.00245815
0.00245815
0.00245815
0.00245815
0.00245815
0.00245815
0.00245815
0.00245815
0.00245815
0.00245815
0.00245815
0.00245815
0.00245815
0.00245815
0.00245815
0.00245815
0.00245815
0.00245815
0.00245815
0.00245815
0.00245815
0.00245815
0.00245815
0.00245815
0.00245815
0.00245815
0.00245815
0.00245815
0.00245815
0.00245815
0.00245815
0.00245815
0.00245815
0.00245815
0.00245815
0.00245815
0.00245815
0.00245815
0.00245815
0.00245815
0.00245815
0.00245815
0.00245815
0.00245815
0.00245815
0.00245815
0.00245815
0.00245815
0.00245815
0.00245815
0.00245815
0.00245815
0.00245815
0.00245815
0.00245815
0.00245815
0.00245815
0.00245815
0.00245815
0.00245815
0.00245815
0.00245815
0.00245815
0.00245815
0.00245815
0.00245815
0.00245815
0.00245815
0.00245815
0.00245815
0.00245815
0.00245815
0.00245815
0.00245815
0.00245815
0.00245815
0.00245815
0.00245815
0.00245815
0.00245815
0.00245815
0.00245815
0.00245815
0.00245815
0.00245815
0.00245815
0.00245815
0.00245815
0.00245815
0.00245815
0.00245815
0.00245815
0.00245815
0.00245815
0.00245815
0.00245815
0.00245815
0.00245815
0.00245815
0.00245815
0.00245815
0.00245815
0.00245815
0.00245815
0.00245815
0.00245815
0.00245815
0.00245815
0.00245815
0.00245815
0.00245815
0.00245815
0.00245815
0.00245815
0.00245815
0.00245815
0.00245815
0.00245815
0.00245815
0.00245815
0.00245815
0.00245815
0.00245815
0.00245815
0.00245815
0.00245815
0.00245815
0.00245815
0.00245815
0.00245815
0.00245815
0.00245815
0.00245815
0.00245815
0.00245815
0.00245815
0.00245815
0.00245815
0.00245815
0.00245815
0.00245815
0.00245815
0.00245815
0.00245815
0.00245815
0.00245815
0.00245815
0.00245815
0.00245815
0.00245815
0.00245815
0.00245815
0.00245815
0.00245815
0.00245815
0.00245815
0.00245815
0.00245815
0.00245815
0.00245815
0.00245815
0.00245815
0.00245815
0.00245815
0.00245815
0.00245815
0.00245815
0.00245815
0.00245815
0.00245815
0.00245815
0.00245815
0.00245815
0.00245815
0.00245815
0.00245815
0.00245815
0.00245815
0.00245815
0.00245815
0.00245815
0.00245815
0.00245815
0.00245815
0.00245815
0.00245815
0.00245815
0.00245815
0.00245815
0.00245815
0.00245815
0.00245815
0.00245815
0.00245815
0.00245815
0.00245815
0.00245815
0.00245815
0.00245815
0.00245815
0.00245815
0.00245815
0.00245815
0.00245815
0.00245815
0.00245815
0.00245815
0.00245815
0.00245815
0.00245815
0.00245815
0.00245815
0.00245815
0.00245815
0.00245815
0.00245815
0.00245815
0.00245815
0.00245815
0.00245815
0.00245815
0.00245815
0.00245815
0.00245815
0.00245815
0.00245815
0.00245815
0.00245815
0.00245815
0.00245815
0.00245815
0.00245815
0.00245815
0.00245815
0.00245815
0.00245815
0.00245815
0.00245815
0.00245815
0.00245815
0.00245815
0.00245815
0.00245815
0.00245815
0.00245815
0.00245815
0.00245815
0.00245815
0.00245815
0.00245815
0.00245815
0.00245815
0.00245815
0.00245815
0.00245815
0.00245815
0.00245815
0.00245815
0.00245815
0.00245815
0.00245815
0.00245815
0.00245815
0.00245815
0.00245815
0.00245815
0.00245815
0.00245815
0.00245815
0.00245815
0.00245815
0.00245815
0.00245815
0.00245815
0.00245815
0.00245815
0.00245815
0.00245815
0.00245815
0.00245815
0.00245815
0.00245815
0.00245815
0.00245815
0.00245815
0.00245815
0.00245815
0.00245815
0.00245815
0.00245815
0.00245815
0.00245815
0.00245815
0.00245815
0.00245815
0.00245815
0.00245815
0.00245815
0.00245815
0.00245815
0.00245815
0.00245815
0.00245815
0.00245815
0.00245815
0.00245815
0.00245815
0.00245815
0.00245815
0.00245815
0.00245815
0.00245815
0.00245815
0.00245815
0.00245815
0.00245815
0.00245815
0.00245815
0.00245815
0.00245815
0.00245815
0.00245815
0.00245815
0.00245815
0.00245815
0.00245815
0.00245815
0.00245815
0.00245815
0.00245815
0.00245815
0.00245815
0.00245815
0.00245815
0.00245815
0.00245815
0.00245815
0.00245815
0.00245815
0.00245815
0.00245815
0.00245815
0.00245815
0.00245815
0.00245815
0.00245815
0.00245815
0.00245815
0.00245815
0.00245815
0.00245815
0.00245815
0.00245815
0.00245815
0.00245815
0.00245815
0.00245815
0.00245815
0.00245815
0.00245815
0.00245815
0.00245815
0.00245815
0.00245815
0.00245815
0.00245815
0.00245815
0.00245815
0.00245815
0.00245815
0.00245815
0.00245815
0.00245815
0.00245815
0.00245815
0.00245815
0.00245815
0.00245815
0.00245815
0.00245815
0.00245815
0.00245815
0.00245815
0.00245815
0.00245815
0.00245815
0.00245815
0.00245815
0.00245815
0.00245815
0.00245815
0.00245815
0.00245815
0.00245815
0.00245815
0.00245815
0.00245815
0.00245815
0.00245815
0.00245815
0.00245815
0.00245815
0.00245815
0.00245815
0.00245815
0.00245815
0.00245815
0.00245815
0.00245815
0.00245815
0.00245815
0.00245815
0.00245815
0.00245815
0.00245815
0.00245815
0.00245815
0.00245815
0.00245815
0.00245815
0.00245815
0.00245815
0.00245815
0.00245815
0.00245815
0.00245815
0.00245815
0.00245815
0.00245815
0.00245815
0.00245815
0.00245815
0.00245815
0.00245815
0.00245815
0.00245815
0.00245815
0.00245815
0.00245815
0.00245815
0.00245815
0.00245815
0.00245815
0.00245815
0.00245815
0.00245815
0.00245815
0.00245815
0.00245815
0.00245815
0.00245815
0.00245815
0.00245815
0.00245815
0.00245815
0.00245815
0.00245815
0.00245815
0.00245815
0.00245815
0.00245815
0.00245815
0.00245815
0.00245815
0.00245815
0.00245815
0.00245815
0.00245815
0.00245815
0.00245815
0.00245815
0.00245815
0.00245815
0.00245815
0.00245815
0.00245815
0.00245815
0.00245815
0.00245815
0.00245815
0.00245815
0.00245815
0.00245815
0.00245815
0.00245815
0.00245815
0.00245815
0.00245815
0.00245815
0.00245815
0.00245815
0.00245815
0.00245815
0.00245815
0.00245815
0.00245815
0.00245815
0.00245815
0.00245815
0.00245815
0.00245815
0.00245815
0.00245815
0.00245815
0.00245815
0.00245815
0.00245815
0.00245815
0.00245815
0.00245815
0.00245815
0.00245815
0.00245815
0.00245815
0.00245815
0.00245815
0.00245815
0.00245815
0.00245815
0.00245815
0.00245815
0.00245815
0.00245815
0.00245815
0.00245815
0.00245815
0.00245815
0.00245815
0.00245815
0.00245815
0.00245815
0.00245815
0.00245815
0.00245815
0.00245815
0.00245815
0.00245815
0.00245815
0.00245815
0.00245815
0.00245815
0.00245815
0.00245815
0.00245815
0.00245815
0.00245815
0.00245815
0.00245815
0.00245815
0.00245815
0.00245815
0.00245815
0.00245815
0.00245815
0.00245815
0.00245815
0.00245815
0.00245815
0.00245815
0.00245815
0.00245815
0.00245815
0.00245815
0.00245815
0.00245815
0.00245815
0.00245815
0.00245815
0.00245815
0.00245815
0.00245815
0.00245815
0.00245815
0.00245815
0.00245815
0.00245815
0.00245815
0.00245815
0.00245815
0.00245815
0.00245815
0.00245815
0.00245815
0.00245815
0.00245815
0.00245815
0.00245815
0.00245815
0.00245815
0.00245815
0.00245815
0.00245815
0.00245815
0.00245815
0.00245815
0.00245815
0.00245815
0.00245815
0.00245815
0.00245815
0.00245815
0.00245815
0.00245815
0.00245815
0.00245815
0.00245815
0.00245815
0.00245815
0.00245815
0.00245815
0.00245815
0.00245815
0.00245815
0.00245815
0.00245815
0.00245815
0.00245815
0.00245815
0.00245815
0.00245815
0.00245815
0.00245815
0.00245815
0.00245815
0.00245815
0.00245815
0.00245815
0.00245815
0.00245815
0.00245815
0.00245815
0.00245815
0.00245815
0.00245815
0.00245815
0.00245815
0.00245815
0.00245815
0.00245815
0.00245815
0.00245815
0.00245815
0.00245815
0.00245815
0.00245815
0.00245815
0.00245815
0.00245815
0.00245815
0.00245815
0.00245815
0.00245815
0.00245815
0.00245815
0.00245815
0.00245815
0.00245815
0.00245814
0.00245814
0.00245814
0.00245814
0.00245814
0.00245814
0.00245814
0.00245814
0.00245814
0.00245814
0.00245814
0.00245813
0.00245813
0.00245813
0.00245813
0.00245813
0.00245813
0.00245812
0.00245812
0.00245812
0.00245812
0.00245811
0.00245811
0.00245811
0.0024581
0.0024581
0.0024581
0.00245809
0.00245809
0.00245808
0.00245808
0.00245807
0.00245807
0.00245806
0.00245805
0.00245805
0.00245804
0.00245803
0.00245802
0.00245801
0.002458
0.00245799
0.00245798
0.00245797
0.00245796
0.00245794
0.00245793
0.00245791
0.0024579
0.00245788
0.00245786
0.00245784
0.00245782
0.0024578
0.00245777
0.00245775
0.00245772
0.00245769
0.00245766
0.00245762
0.00245759
0.00245755
0.00245751
0.00245747
0.00245742
0.00245737
0.00245732
0.00245727
0.00245721
0.00245715
0.00245708
0.00245701
0.00245694
0.00245686
0.00245677
0.00245669
0.00245659
0.00245649
0.00245639
0.00245627
0.00245615
0.00245603
0.00245589
0.00245575
0.0024556
0.00245544
0.00245527
0.00245509
0.0024549
0.0024547
0.00245449
0.00245426
0.00245402
0.00245377
0.0024535
0.00245322
0.00245292
0.00245261
0.00245227
0.00245192
0.00245155
0.00245115
0.00245074
0.0024503
0.00244984
0.00244935
0.00244883
0.00244828
0.00244771
0.0024471
0.00244646
0.00244579
0.00244508
0.00244433
0.00244354
0.00244271
0.00244183
0.00244091
0.00243994
0.00243891
0.00243784
0.00243671
0.00243552
0.00243426
0.00243295
0.00243156
0.00243011
0.00242858
0.00242697
0.00242528
0.00242351
0.00242165
0.0024197
0.00241765
0.0024155
0.00241324
0.00241088
0.0024084
0.0024058
0.00240308
0.00240023
0.00239724
0.00239412
0.00239085
0.00238742
0.00238384
0.00238009
0.00237618
0.00237208
0.00236781
0.00236334
0.00235867
0.0023538
0.00234871
0.0023434
0.00233787
0.0023321
0.00232608
0.00231981
0.00231328
0.00230648
0.00229941
0.00229204
0.00228438
0.00227642
0.00226814
0.00225954
0.0022506
0.00224133
0.0022317
0.00222172
0.00221137
0.00220064
0.00218953
0.00217802
0.00216611
0.00215379
0.00214105
0.00212789
0.00211429
0.00210025
0.00208576
0.00207082
0.00205542
0.00203956
0.00202323
0.00200643
0.00198915
0.00197139
0.00195315
0.00193444
0.00191524
0.00189556
0.00187541
0.00185478
0.00183368
0.00181211
0.00179009
0.00176761
0.0017447
0.00172134
0.00169757
0.00167339
0.00164881
0.00162385
0.00159853
0.00157287
0.00154688
0.00152058
0.001494
0.00146716
0.00144008
0.00141279
0.00138532
0.00135769
0.00132993
0.00130207
0.00127414
0.00124618
0.00121821
0.00119026
0.00116237
0.00113457
0.00110689
0.00107936
0.00105202
0.00102489
0.000998008
0.000971404
0.000945105
0.00091914
0.000893536
0.000868319
0.000843512
0.000819138
0.000795218
0.000771773
0.000748818
0.000726371
0.000704445
0.000683051
0.000662199
0.000641898
0.000622153
0.000602969
0.000584346
0.000566287
0.000548788
0.000531847
0.000515459
0.000499618
0.000484316
0.000469544
0.000455292
0.000441549
0.000428303
0.00041554
0.000403248
0.000391411
0.000380017
0.00036905
0.000358494
0.000348336
0.000338558
0.000329148
0.000320088
0.000311365
0.000302964
0.00029487
0.00028707
0.00027955
0.000272297
0.000265297
0.000258539
0.000252012
0.000245702
0.0002396
0.000233695
0.000227977
0.000222437
0.000217065
0.000211853
0.000206793
0.000201876
0.000197097
0.000192447
0.000187921
0.000183512
0.000179214
0.000175022
0.000170932
0.000166937
0.000163034
0.000159219
0.000155487
0.000151836
0.000148262
0.000144761
0.000141332
0.000137971
0.000134677
0.000131446
0.000128278
0.000125171
0.000122122
0.000119132
0.000116198
0.000113321
0.000110499
0.000107731
0.000105019
0.00010236
9.97563e-05
9.7207e-05
9.47125e-05
9.22734e-05
8.98902e-05
8.75637e-05
8.52946e-05
8.30839e-05
8.09325e-05
7.88414e-05
7.68117e-05
7.48445e-05
7.29409e-05
7.11019e-05
6.93284e-05
6.76213e-05
6.59814e-05
6.44093e-05
6.29055e-05
6.14701e-05
6.01031e-05
5.88044e-05
5.75735e-05
5.64095e-05
5.53115e-05
5.42781e-05
5.33077e-05
5.23985e-05
5.15483e-05
5.0755e-05
5.00158e-05
4.93281e-05
4.8689e-05
4.80956e-05
4.75447e-05
4.70333e-05
4.65581e-05
4.6116e-05
4.57038e-05
4.53184e-05
4.49567e-05
4.46158e-05
4.42926e-05
4.39845e-05
4.36886e-05
4.34023e-05
4.31233e-05
4.28489e-05
4.25771e-05
4.23055e-05
4.20322e-05
4.17551e-05
4.14723e-05
4.11822e-05
4.08829e-05
4.05729e-05
4.02506e-05
3.99147e-05
3.95637e-05
3.91962e-05
3.88111e-05
3.84072e-05
3.79833e-05
3.75384e-05
3.70714e-05
3.65814e-05
3.60675e-05
3.55289e-05
3.49646e-05
3.43741e-05
3.37566e-05
3.31114e-05
3.24381e-05
3.17361e-05
3.1005e-05
3.02445e-05
2.94543e-05
2.86342e-05
2.77843e-05
2.69044e-05
2.59949e-05
2.50561e-05
2.40884e-05
2.30925e-05
2.20694e-05
2.10201e-05
1.9946e-05
1.88489e-05
1.77309e-05
1.65945e-05
1.54426e-05
1.42788e-05
1.31074e-05
1.19334e-05
1.07626e-05
9.60217e-06
8.46007e-06
7.34577e-06
6.2701e-06
5.24524e-06
4.28458e-06
3.40221e-06
2.61203e-06
1.92642e-06
1.35433e-06
8.99314e-07
5.57853e-07
3.18904e-07
1.65095e-07
7.55549e-08
2.94863e-08
9.25889e-09
2.11503e-09
2.97514e-10
3.31196e-11
2.30372e-11
)
;

boundaryField
{
    top_wall
    {
        type            nutLowReWallFunction;
        value           uniform 0;
    }
    inlet
    {
        type            cyclic;
    }
    bot_wall
    {
        type            nutLowReWallFunction;
        value           uniform 0;
    }
    outlet
    {
        type            cyclic;
    }
    frontAndBack
    {
        type            empty;
    }
}


// ************************************************************************* //
