# Wall shear stress
# Time          	patch           	min             	max             
0.5             	top_wall	(-1.18466506e-01 -3.65726879e-23 0.00000000e+00)	(-1.18466506e-01 -3.65726879e-23 0.00000000e+00)
0.5             	bot_wall	(-1.18466295e-01 1.41767405e-18 0.00000000e+00)	(-1.18466295e-01 1.41767405e-18 0.00000000e+00)
1               	top_wall	(-1.02726439e-01 -2.19453060e-23 0.00000000e+00)	(-1.02726439e-01 -2.19453060e-23 0.00000000e+00)
1               	bot_wall	(-1.02726415e-01 1.09931895e-18 0.00000000e+00)	(-1.02726415e-01 1.09931895e-18 0.00000000e+00)
