/*--------------------------------*- C++ -*----------------------------------*\
| =========                 |                                                 |
| \\      /  F ield         | OpenFOAM: The Open Source CFD Toolbox           |
|  \\    /   O peration     | Version:  2312                                  |
|   \\  /    A nd           | Website:  www.openfoam.com                      |
|    \\/     M anipulation  |                                                 |
\*---------------------------------------------------------------------------*/
FoamFile
{
    version     2.0;
    format      ascii;
    arch        "LSB;label=32;scalar=64";
    class       volScalarField;
    location    "0.79";
    object      k;
}
// * * * * * * * * * * * * * * * * * * * * * * * * * * * * * * * * * * * * * //

dimensions      [0 2 -2 0 0 0 0];

internalField   nonuniform List<scalar> 
2000
(
0.000223754
7.35036e-05
0.00028831
0.000990448
0.00248544
0.0051023
0.0091439
0.0148303
0.0222367
0.0312499
0.0415721
0.0527775
0.0643991
0.0760086
0.0872645
0.0979313
0.107891
0.117126
0.125614
0.133355
0.140364
0.146667
0.152298
0.157292
0.161688
0.165522
0.16883
0.171647
0.174004
0.175932
0.177458
0.178611
0.179416
0.179898
0.18008
0.17998
0.179617
0.179007
0.178163
0.177101
0.175834
0.174373
0.172731
0.170919
0.168947
0.166826
0.164565
0.162174
0.159663
0.157039
0.15431
0.151486
0.148574
0.14558
0.142511
0.139375
0.136176
0.132931
0.129659
0.126373
0.123078
0.119782
0.116491
0.113212
0.10995
0.106712
0.103504
0.100334
0.0972088
0.094135
0.0911187
0.0881624
0.0852583
0.0823963
0.0795749
0.0767963
0.074063
0.0713775
0.0687419
0.0661588
0.0636301
0.0611583
0.0587452
0.0563929
0.0541033
0.0518779
0.0497185
0.0476265
0.0456032
0.0436497
0.0417671
0.0399562
0.0382176
0.0365519
0.0349593
0.0334401
0.031994
0.0306209
0.0293204
0.0280918
0.0269342
0.0258466
0.0248279
0.0238766
0.022991
0.0221695
0.02141
0.0207106
0.0200688
0.0194824
0.0189489
0.0184657
0.0180302
0.0176397
0.0172916
0.016983
0.0167113
0.0164738
0.0162678
0.0160905
0.0159391
0.0158112
0.015704
0.0156158
0.015546
0.0154938
0.0154572
0.0154345
0.0154239
0.0154238
0.0154327
0.0154494
0.0154727
0.0155013
0.0155344
0.0155711
0.0156105
0.0156519
0.0156946
0.0157381
0.0157818
0.0158253
0.0158682
0.0159102
0.0159514
0.0159918
0.0160309
0.0160681
0.0161031
0.0161353
0.0161646
0.0161906
0.0162131
0.016232
0.0162471
0.0162583
0.0162657
0.0162691
0.0162687
0.0162643
0.0162561
0.016244
0.0162282
0.0162088
0.0161858
0.0161593
0.0161295
0.0160964
0.0160601
0.0160208
0.0159786
0.0159335
0.0158858
0.0158354
0.0157826
0.0157274
0.0156699
0.0156103
0.0155488
0.0154857
0.0154211
0.0153551
0.0152879
0.0152197
0.0151504
0.0150802
0.0150092
0.0149375
0.0148651
0.0147921
0.0147186
0.0146446
0.0145702
0.0144955
0.0144205
0.0143453
0.0142698
0.0141942
0.0141185
0.0140428
0.013967
0.0138913
0.0138156
0.01374
0.0136646
0.0135893
0.0135142
0.0134394
0.0133647
0.0132904
0.0132163
0.0131426
0.0130692
0.0129961
0.0129235
0.0128512
0.0127793
0.0127079
0.0126369
0.0125663
0.0124962
0.0124266
0.0123574
0.0122887
0.0122206
0.0121529
0.0120857
0.012019
0.0119529
0.0118873
0.0118221
0.0117576
0.0116935
0.01163
0.011567
0.0115046
0.0114427
0.0113813
0.0113205
0.0112602
0.0112004
0.0111412
0.0110825
0.0110243
0.0109667
0.0109096
0.0108531
0.0107971
0.0107416
0.0106866
0.0106322
0.0105783
0.0105249
0.010472
0.0104197
0.0103679
0.0103165
0.0102658
0.0102155
0.0101657
0.0101165
0.0100677
0.0100195
0.00997172
0.00992448
0.00987774
0.00983151
0.00978576
0.00974052
0.00969577
0.00965151
0.00960774
0.00956446
0.00952167
0.00947936
0.00943754
0.00939619
0.00935533
0.00931495
0.00927504
0.00923561
0.00919665
0.00915816
0.00912015
0.00908259
0.00904551
0.00900888
0.00897272
0.00893701
0.00890176
0.00886697
0.00883262
0.00879872
0.00876527
0.00873225
0.00869968
0.00866755
0.00863595
0.00860496
0.00857463
0.00854502
0.00851618
0.00848815
0.00846095
0.00843461
0.00840915
0.00838458
0.00836091
0.00833814
0.00831627
0.0082953
0.00827523
0.00825605
0.00823774
0.00822031
0.00820375
0.00818804
0.00817318
0.00815919
0.00814606
0.0081338
0.00812244
0.00811202
0.00810257
0.00809414
0.00808676
0.00808045
0.00807518
0.00807081
0.00806724
0.0080645
0.00806252
0.00806112
0.00806015
0.00805948
0.00805903
0.00805872
0.0080585
0.00805834
0.00805821
0.00805811
0.00805801
0.00805793
0.00805785
0.00805778
0.00805772
0.00805766
0.00805761
0.00805756
0.00805752
0.00805748
0.00805744
0.00805741
0.00805738
0.00805735
0.00805733
0.00805731
0.00805729
0.00805727
0.00805726
0.00805724
0.00805723
0.00805722
0.00805721
0.0080572
0.00805719
0.00805718
0.00805718
0.00805717
0.00805717
0.00805716
0.00805716
0.00805715
0.00805715
0.00805715
0.00805714
0.00805714
0.00805714
0.00805714
0.00805714
0.00805713
0.00805713
0.00805713
0.00805713
0.00805713
0.00805713
0.00805713
0.00805713
0.00805713
0.00805712
0.00805712
0.00805712
0.00805712
0.00805712
0.00805712
0.00805712
0.00805712
0.00805712
0.00805712
0.00805712
0.00805712
0.00805712
0.00805712
0.00805712
0.00805712
0.00805712
0.00805712
0.00805712
0.00805712
0.00805712
0.00805712
0.00805712
0.00805712
0.00805712
0.00805712
0.00805712
0.00805712
0.00805712
0.00805712
0.00805712
0.00805712
0.00805712
0.00805712
0.00805712
0.00805712
0.00805712
0.00805712
0.00805712
0.00805712
0.00805712
0.00805712
0.00805712
0.00805712
0.00805712
0.00805712
0.00805712
0.00805712
0.00805712
0.00805712
0.00805712
0.00805712
0.00805712
0.00805712
0.00805712
0.00805712
0.00805712
0.00805712
0.00805712
0.00805712
0.00805712
0.00805712
0.00805712
0.00805712
0.00805712
0.00805712
0.00805712
0.00805712
0.00805712
0.00805712
0.00805712
0.00805712
0.00805712
0.00805712
0.00805712
0.00805712
0.00805712
0.00805712
0.00805712
0.00805712
0.00805712
0.00805712
0.00805712
0.00805712
0.00805712
0.00805712
0.00805712
0.00805712
0.00805712
0.00805712
0.00805712
0.00805712
0.00805712
0.00805712
0.00805712
0.00805712
0.00805712
0.00805712
0.00805712
0.00805712
0.00805712
0.00805712
0.00805712
0.00805712
0.00805712
0.00805712
0.00805712
0.00805712
0.00805712
0.00805712
0.00805712
0.00805712
0.00805712
0.00805712
0.00805712
0.00805712
0.00805712
0.00805712
0.00805712
0.00805712
0.00805712
0.00805712
0.00805712
0.00805712
0.00805712
0.00805712
0.00805712
0.00805712
0.00805712
0.00805712
0.00805712
0.00805712
0.00805712
0.00805712
0.00805712
0.00805712
0.00805712
0.00805712
0.00805712
0.00805712
0.00805712
0.00805712
0.00805712
0.00805712
0.00805712
0.00805712
0.00805712
0.00805712
0.00805712
0.00805712
0.00805712
0.00805712
0.00805712
0.00805712
0.00805712
0.00805712
0.00805712
0.00805712
0.00805712
0.00805712
0.00805712
0.00805712
0.00805712
0.00805712
0.00805712
0.00805712
0.00805712
0.00805712
0.00805712
0.00805712
0.00805712
0.00805712
0.00805712
0.00805712
0.00805712
0.00805712
0.00805712
0.00805712
0.00805712
0.00805712
0.00805712
0.00805712
0.00805712
0.00805712
0.00805712
0.00805712
0.00805712
0.00805712
0.00805712
0.00805712
0.00805712
0.00805712
0.00805712
0.00805712
0.00805712
0.00805712
0.00805712
0.00805712
0.00805712
0.00805712
0.00805712
0.00805712
0.00805712
0.00805712
0.00805712
0.00805712
0.00805712
0.00805712
0.00805712
0.00805712
0.00805712
0.00805712
0.00805712
0.00805712
0.00805712
0.00805712
0.00805712
0.00805712
0.00805712
0.00805712
0.00805712
0.00805712
0.00805712
0.00805712
0.00805712
0.00805712
0.00805712
0.00805712
0.00805712
0.00805712
0.00805712
0.00805712
0.00805712
0.00805712
0.00805712
0.00805712
0.00805712
0.00805712
0.00805712
0.00805712
0.00805712
0.00805712
0.00805712
0.00805712
0.00805712
0.00805712
0.00805712
0.00805712
0.00805712
0.00805712
0.00805712
0.00805712
0.00805712
0.00805712
0.00805712
0.00805712
0.00805712
0.00805712
0.00805712
0.00805712
0.00805712
0.00805712
0.00805712
0.00805712
0.00805712
0.00805712
0.00805712
0.00805712
0.00805712
0.00805712
0.00805712
0.00805712
0.00805712
0.00805712
0.00805712
0.00805712
0.00805712
0.00805712
0.00805712
0.00805712
0.00805712
0.00805712
0.00805712
0.00805712
0.00805712
0.00805712
0.00805712
0.00805712
0.00805712
0.00805712
0.00805712
0.00805712
0.00805712
0.00805712
0.00805712
0.00805712
0.00805712
0.00805712
0.00805712
0.00805712
0.00805712
0.00805712
0.00805712
0.00805712
0.00805712
0.00805712
0.00805712
0.00805712
0.00805712
0.00805712
0.00805712
0.00805712
0.00805712
0.00805712
0.00805712
0.00805712
0.00805712
0.00805712
0.00805712
0.00805712
0.00805712
0.00805712
0.00805712
0.00805712
0.00805712
0.00805712
0.00805712
0.00805712
0.00805712
0.00805712
0.00805712
0.00805712
0.00805712
0.00805712
0.00805712
0.00805712
0.00805712
0.00805712
0.00805712
0.00805712
0.00805712
0.00805712
0.00805712
0.00805712
0.00805712
0.00805712
0.00805712
0.00805712
0.00805712
0.00805712
0.00805712
0.00805712
0.00805712
0.00805712
0.00805712
0.00805712
0.00805712
0.00805712
0.00805712
0.00805712
0.00805712
0.00805712
0.00805712
0.00805712
0.00805712
0.00805712
0.00805712
0.00805712
0.00805712
0.00805712
0.00805712
0.00805712
0.00805712
0.00805712
0.00805712
0.00805712
0.00805712
0.00805712
0.00805712
0.00805712
0.00805712
0.00805712
0.00805712
0.00805712
0.00805712
0.00805712
0.00805712
0.00805712
0.00805712
0.00805712
0.00805712
0.00805712
0.00805712
0.00805712
0.00805712
0.00805712
0.00805712
0.00805712
0.00805712
0.00805712
0.00805712
0.00805712
0.00805712
0.00805712
0.00805712
0.00805712
0.00805712
0.00805712
0.00805712
0.00805712
0.00805712
0.00805712
0.00805712
0.00805712
0.00805712
0.00805712
0.00805712
0.00805712
0.00805712
0.00805712
0.00805712
0.00805712
0.00805712
0.00805712
0.00805712
0.00805712
0.00805712
0.00805712
0.00805712
0.00805712
0.00805712
0.00805712
0.00805712
0.00805712
0.00805712
0.00805712
0.00805712
0.00805712
0.00805712
0.00805712
0.00805712
0.00805712
0.00805712
0.00805712
0.00805712
0.00805712
0.00805712
0.00805712
0.00805712
0.00805712
0.00805712
0.00805712
0.00805712
0.00805712
0.00805712
0.00805712
0.00805712
0.00805712
0.00805712
0.00805712
0.00805712
0.00805712
0.00805712
0.00805712
0.00805712
0.00805712
0.00805712
0.00805712
0.00805712
0.00805712
0.00805712
0.00805712
0.00805712
0.00805712
0.00805712
0.00805712
0.00805712
0.00805712
0.00805712
0.00805712
0.00805712
0.00805712
0.00805712
0.00805712
0.00805712
0.00805712
0.00805712
0.00805712
0.00805712
0.00805712
0.00805712
0.00805712
0.00805712
0.00805712
0.00805712
0.00805712
0.00805712
0.00805712
0.00805712
0.00805712
0.00805712
0.00805712
0.00805712
0.00805712
0.00805712
0.00805712
0.00805712
0.00805712
0.00805712
0.00805712
0.00805712
0.00805712
0.00805712
0.00805712
0.00805712
0.00805712
0.00805712
0.00805712
0.00805712
0.00805712
0.00805712
0.00805712
0.00805712
0.00805712
0.00805712
0.00805712
0.00805712
0.00805712
0.00805712
0.00805712
0.00805712
0.00805712
0.00805712
0.00805712
0.00805712
0.00805712
0.00805712
0.00805712
0.00805712
0.00805712
0.00805712
0.00805712
0.00805712
0.00805712
0.00805712
0.00805712
0.00805712
0.00805712
0.00805712
0.00805712
0.00805712
0.00805712
0.00805712
0.00805712
0.00805712
0.00805712
0.00805712
0.00805712
0.00805712
0.00805712
0.00805712
0.00805712
0.00805712
0.00805712
0.00805712
0.00805712
0.00805712
0.00805712
0.00805712
0.00805712
0.00805712
0.00805712
0.00805712
0.00805712
0.00805712
0.00805712
0.00805712
0.00805712
0.00805712
0.00805712
0.00805712
0.00805712
0.00805712
0.00805712
0.00805712
0.00805712
0.00805712
0.00805712
0.00805712
0.00805712
0.00805712
0.00805712
0.00805712
0.00805712
0.00805712
0.00805712
0.00805712
0.00805712
0.00805712
0.00805712
0.00805712
0.00805712
0.00805712
0.00805712
0.00805712
0.00805712
0.00805712
0.00805712
0.00805712
0.00805712
0.00805712
0.00805712
0.00805712
0.00805712
0.00805712
0.00805712
0.00805712
0.00805712
0.00805712
0.00805712
0.00805712
0.00805712
0.00805712
0.00805712
0.00805712
0.00805712
0.00805712
0.00805712
0.00805712
0.00805712
0.00805712
0.00805712
0.00805712
0.00805712
0.00805712
0.00805712
0.00805712
0.00805712
0.00805712
0.00805712
0.00805712
0.00805712
0.00805712
0.00805712
0.00805712
0.00805712
0.00805712
0.00805712
0.00805712
0.00805712
0.00805712
0.00805712
0.00805712
0.00805712
0.00805712
0.00805712
0.00805712
0.00805712
0.00805712
0.00805712
0.00805712
0.00805712
0.00805712
0.00805712
0.00805712
0.00805712
0.00805712
0.00805712
0.00805712
0.00805712
0.00805712
0.00805712
0.00805712
0.00805712
0.00805712
0.00805712
0.00805712
0.00805712
0.00805712
0.00805712
0.00805712
0.00805712
0.00805712
0.00805712
0.00805712
0.00805712
0.00805712
0.00805712
0.00805712
0.00805712
0.00805712
0.00805712
0.00805712
0.00805712
0.00805712
0.00805712
0.00805712
0.00805712
0.00805712
0.00805712
0.00805712
0.00805712
0.00805712
0.00805712
0.00805712
0.00805712
0.00805712
0.00805712
0.00805712
0.00805712
0.00805712
0.00805712
0.00805712
0.00805712
0.00805712
0.00805712
0.00805712
0.00805712
0.00805712
0.00805712
0.00805712
0.00805712
0.00805712
0.00805712
0.00805712
0.00805712
0.00805712
0.00805712
0.00805712
0.00805712
0.00805712
0.00805712
0.00805712
0.00805712
0.00805712
0.00805712
0.00805712
0.00805712
0.00805712
0.00805712
0.00805712
0.00805712
0.00805712
0.00805712
0.00805712
0.00805712
0.00805712
0.00805712
0.00805712
0.00805712
0.00805712
0.00805712
0.00805712
0.00805712
0.00805712
0.00805712
0.00805712
0.00805712
0.00805712
0.00805712
0.00805712
0.00805712
0.00805712
0.00805712
0.00805712
0.00805712
0.00805712
0.00805712
0.00805712
0.00805712
0.00805712
0.00805712
0.00805712
0.00805712
0.00805712
0.00805712
0.00805712
0.00805712
0.00805712
0.00805712
0.00805712
0.00805712
0.00805712
0.00805712
0.00805712
0.00805712
0.00805712
0.00805712
0.00805712
0.00805712
0.00805712
0.00805712
0.00805712
0.00805712
0.00805712
0.00805712
0.00805712
0.00805712
0.00805712
0.00805712
0.00805712
0.00805712
0.00805712
0.00805712
0.00805712
0.00805712
0.00805712
0.00805712
0.00805712
0.00805712
0.00805712
0.00805712
0.00805712
0.00805712
0.00805712
0.00805712
0.00805712
0.00805712
0.00805712
0.00805712
0.00805712
0.00805712
0.00805712
0.00805712
0.00805712
0.00805712
0.00805712
0.00805712
0.00805712
0.00805712
0.00805712
0.00805712
0.00805712
0.00805712
0.00805712
0.00805712
0.00805712
0.00805712
0.00805712
0.00805712
0.00805712
0.00805712
0.00805712
0.00805712
0.00805712
0.00805712
0.00805712
0.00805712
0.00805712
0.00805712
0.00805712
0.00805712
0.00805712
0.00805712
0.00805712
0.00805712
0.00805712
0.00805712
0.00805712
0.00805712
0.00805712
0.00805712
0.00805712
0.00805712
0.00805712
0.00805712
0.00805712
0.00805712
0.00805712
0.00805712
0.00805712
0.00805712
0.00805712
0.00805712
0.00805712
0.00805712
0.00805712
0.00805712
0.00805712
0.00805712
0.00805712
0.00805712
0.00805712
0.00805712
0.00805712
0.00805712
0.00805712
0.00805712
0.00805712
0.00805712
0.00805712
0.00805712
0.00805712
0.00805712
0.00805712
0.00805712
0.00805712
0.00805712
0.00805712
0.00805712
0.00805712
0.00805712
0.00805712
0.00805712
0.00805712
0.00805712
0.00805712
0.00805712
0.00805712
0.00805712
0.00805712
0.00805712
0.00805712
0.00805712
0.00805712
0.00805712
0.00805712
0.00805712
0.00805712
0.00805712
0.00805712
0.00805712
0.00805712
0.00805712
0.00805712
0.00805712
0.00805712
0.00805712
0.00805712
0.00805712
0.00805712
0.00805712
0.00805712
0.00805712
0.00805712
0.00805712
0.00805712
0.00805712
0.00805712
0.00805712
0.00805712
0.00805712
0.00805712
0.00805712
0.00805712
0.00805712
0.00805712
0.00805712
0.00805712
0.00805712
0.00805712
0.00805712
0.00805712
0.00805712
0.00805712
0.00805712
0.00805712
0.00805712
0.00805712
0.00805712
0.00805712
0.00805712
0.00805712
0.00805712
0.00805712
0.00805712
0.00805712
0.00805712
0.00805712
0.00805712
0.00805712
0.00805712
0.00805712
0.00805712
0.00805712
0.00805712
0.00805712
0.00805712
0.00805712
0.00805712
0.00805712
0.00805712
0.00805712
0.00805712
0.00805712
0.00805712
0.00805712
0.00805712
0.00805712
0.00805712
0.00805712
0.00805712
0.00805712
0.00805712
0.00805712
0.00805712
0.00805712
0.00805712
0.00805712
0.00805712
0.00805712
0.00805712
0.00805712
0.00805712
0.00805712
0.00805712
0.00805712
0.00805712
0.00805712
0.00805712
0.00805712
0.00805712
0.00805712
0.00805712
0.00805712
0.00805712
0.00805712
0.00805712
0.00805712
0.00805712
0.00805712
0.00805712
0.00805712
0.00805712
0.00805712
0.00805712
0.00805712
0.00805712
0.00805712
0.00805712
0.00805712
0.00805712
0.00805712
0.00805712
0.00805712
0.00805712
0.00805712
0.00805712
0.00805712
0.00805712
0.00805712
0.00805712
0.00805712
0.00805712
0.00805712
0.00805712
0.00805712
0.00805712
0.00805712
0.00805712
0.00805712
0.00805712
0.00805712
0.00805712
0.00805712
0.00805712
0.00805712
0.00805712
0.00805712
0.00805712
0.00805712
0.00805712
0.00805712
0.00805712
0.00805712
0.00805712
0.00805712
0.00805712
0.00805712
0.00805712
0.00805712
0.00805712
0.00805712
0.00805712
0.00805712
0.00805712
0.00805712
0.00805712
0.00805712
0.00805712
0.00805712
0.00805712
0.00805712
0.00805712
0.00805712
0.00805712
0.00805712
0.00805712
0.00805712
0.00805712
0.00805712
0.00805712
0.00805712
0.00805712
0.00805712
0.00805712
0.00805712
0.00805712
0.00805712
0.00805712
0.00805712
0.00805712
0.00805712
0.00805712
0.00805712
0.00805712
0.00805712
0.00805712
0.00805712
0.00805712
0.00805712
0.00805712
0.00805712
0.00805712
0.00805712
0.00805712
0.00805712
0.00805712
0.00805712
0.00805712
0.00805712
0.00805712
0.00805712
0.00805712
0.00805712
0.00805712
0.00805712
0.00805712
0.00805712
0.00805712
0.00805712
0.00805712
0.00805712
0.00805712
0.00805712
0.00805712
0.00805712
0.00805712
0.00805712
0.00805712
0.00805712
0.00805712
0.00805712
0.00805712
0.00805712
0.00805712
0.00805712
0.00805712
0.00805712
0.00805712
0.00805712
0.00805712
0.00805712
0.00805712
0.00805712
0.00805712
0.00805712
0.00805712
0.00805712
0.00805712
0.00805712
0.00805712
0.00805712
0.00805712
0.00805712
0.00805712
0.00805712
0.00805712
0.00805712
0.00805712
0.00805712
0.00805712
0.00805712
0.00805712
0.00805712
0.00805712
0.00805712
0.00805712
0.00805712
0.00805712
0.00805712
0.00805712
0.00805712
0.00805712
0.00805712
0.00805712
0.00805712
0.00805712
0.00805712
0.00805712
0.00805712
0.00805712
0.00805712
0.00805712
0.00805712
0.00805712
0.00805712
0.00805712
0.00805712
0.00805712
0.00805712
0.00805712
0.00805712
0.00805712
0.00805712
0.00805712
0.00805712
0.00805712
0.00805712
0.00805712
0.00805712
0.00805712
0.00805712
0.00805712
0.00805712
0.00805712
0.00805712
0.00805712
0.00805712
0.00805712
0.00805712
0.00805712
0.00805713
0.00805713
0.00805713
0.00805713
0.00805713
0.00805713
0.00805713
0.00805713
0.00805713
0.00805714
0.00805714
0.00805714
0.00805714
0.00805714
0.00805715
0.00805715
0.00805715
0.00805716
0.00805716
0.00805717
0.00805717
0.00805718
0.00805718
0.00805719
0.0080572
0.00805721
0.00805722
0.00805723
0.00805724
0.00805726
0.00805727
0.00805729
0.00805731
0.00805733
0.00805735
0.00805738
0.00805741
0.00805744
0.00805748
0.00805752
0.00805756
0.00805761
0.00805766
0.00805772
0.00805778
0.00805785
0.00805793
0.00805801
0.00805811
0.00805821
0.00805834
0.0080585
0.00805872
0.00805903
0.00805948
0.00806015
0.00806112
0.00806252
0.0080645
0.00806724
0.00807081
0.00807517
0.00808045
0.00808676
0.00809414
0.00810257
0.00811201
0.00812244
0.00813379
0.00814605
0.00815918
0.00817317
0.00818803
0.00820373
0.0082203
0.00823773
0.00825603
0.00827522
0.00829529
0.00831626
0.00833812
0.00836089
0.00838456
0.00840914
0.0084346
0.00846094
0.00848813
0.00851617
0.00854501
0.00857461
0.00860494
0.00863593
0.00866753
0.00869966
0.00873223
0.00876525
0.0087987
0.0088326
0.00886695
0.00890174
0.00893699
0.0089727
0.00900886
0.00904548
0.00908257
0.00912012
0.00915814
0.00919663
0.00923559
0.00927502
0.00931492
0.00935531
0.00939617
0.00943751
0.00947933
0.00952164
0.00956443
0.00960771
0.00965148
0.00969574
0.00974049
0.00978574
0.00983148
0.00987772
0.00992445
0.00997169
0.0100194
0.0100677
0.0101164
0.0101657
0.0102154
0.0102657
0.0103165
0.0103678
0.0104197
0.010472
0.0105249
0.0105782
0.0106321
0.0106866
0.0107415
0.010797
0.010853
0.0109096
0.0109667
0.0110243
0.0110825
0.0111411
0.0112004
0.0112601
0.0113204
0.0113813
0.0114426
0.0115045
0.011567
0.01163
0.0116935
0.0117575
0.0118221
0.0118872
0.0119528
0.012019
0.0120857
0.0121528
0.0122205
0.0122887
0.0123574
0.0124265
0.0124962
0.0125663
0.0126368
0.0127078
0.0127793
0.0128512
0.0129234
0.0129961
0.0130691
0.0131425
0.0132163
0.0132903
0.0133647
0.0134393
0.0135142
0.0135893
0.0136646
0.01374
0.0138156
0.0138912
0.013967
0.0140427
0.0141185
0.0141942
0.0142698
0.0143452
0.0144205
0.0144955
0.0145702
0.0146446
0.0147186
0.0147921
0.014865
0.0149374
0.0150092
0.0150802
0.0151503
0.0152196
0.0152879
0.0153551
0.015421
0.0154856
0.0155488
0.0156103
0.0156699
0.0157273
0.0157825
0.0158354
0.0158857
0.0159335
0.0159785
0.0160208
0.0160601
0.0160964
0.0161295
0.0161593
0.0161858
0.0162088
0.0162282
0.016244
0.016256
0.0162643
0.0162686
0.0162691
0.0162657
0.0162583
0.016247
0.0162319
0.0162131
0.0161906
0.0161646
0.0161353
0.016103
0.0160681
0.0160308
0.0159917
0.0159513
0.0159101
0.0158682
0.0158253
0.0157818
0.0157381
0.0156946
0.0156518
0.0156105
0.0155711
0.0155344
0.0155013
0.0154726
0.0154494
0.0154327
0.0154238
0.0154239
0.0154345
0.0154572
0.0154937
0.015546
0.0156158
0.015704
0.0158112
0.0159391
0.0160904
0.0162677
0.0164738
0.0167113
0.016983
0.0172915
0.0176397
0.0180302
0.0184657
0.0189488
0.0194823
0.0200687
0.0207105
0.02141
0.0221694
0.0229909
0.0238765
0.0248278
0.0258465
0.026934
0.0280916
0.0293202
0.0306208
0.0319938
0.0334399
0.0349592
0.0365517
0.0382174
0.039956
0.0417669
0.0436495
0.045603
0.0476263
0.0497183
0.0518777
0.054103
0.0563927
0.058745
0.061158
0.0636299
0.0661585
0.0687417
0.0713772
0.0740628
0.076796
0.0795746
0.082396
0.085258
0.0881621
0.0911184
0.0941347
0.0972085
0.100334
0.103504
0.106712
0.10995
0.113212
0.116491
0.119782
0.123078
0.126372
0.129659
0.13293
0.136176
0.139374
0.142511
0.145579
0.148573
0.151486
0.15431
0.157038
0.159662
0.162174
0.164565
0.166825
0.168947
0.170918
0.172731
0.174373
0.175833
0.177101
0.178163
0.179006
0.179617
0.17998
0.180079
0.179898
0.179416
0.17861
0.177457
0.175931
0.174004
0.171647
0.16883
0.165521
0.161687
0.157292
0.152297
0.146667
0.140364
0.133355
0.125614
0.117125
0.10789
0.0979309
0.0872641
0.0760082
0.0643988
0.0527772
0.0415718
0.0312497
0.0222365
0.0148302
0.00914384
0.00510227
0.00248543
0.000990442
0.000288309
7.35032e-05
0.000223753
)
;

boundaryField
{
    top_wall
    {
        type            kLowReWallFunction;
        value           uniform 4.17499e-10;
    }
    inlet
    {
        type            cyclic;
    }
    bot_wall
    {
        type            kLowReWallFunction;
        value           uniform 4.17502e-10;
    }
    outlet
    {
        type            cyclic;
    }
    frontAndBack
    {
        type            empty;
    }
}


// ************************************************************************* //
