/*--------------------------------*- C++ -*----------------------------------*\
| =========                 |                                                 |
| \\      /  F ield         | OpenFOAM: The Open Source CFD Toolbox           |
|  \\    /   O peration     | Version:  2312                                  |
|   \\  /    A nd           | Website:  www.openfoam.com                      |
|    \\/     M anipulation  |                                                 |
\*---------------------------------------------------------------------------*/
FoamFile
{
    version     2.0;
    format      ascii;
    arch        "LSB;label=32;scalar=64";
    class       volScalarField;
    location    "0.79";
    object      nut;
}
// * * * * * * * * * * * * * * * * * * * * * * * * * * * * * * * * * * * * * //

dimensions      [0 2 -1 0 0 0 0];

internalField   nonuniform List<scalar> 
2000
(
2.88462e-11
5.49386e-11
6.31723e-10
4.53916e-09
1.96897e-08
6.18604e-08
1.55728e-07
3.32659e-07
6.24876e-07
1.0578e-06
1.644e-06
2.3813e-06
3.25516e-06
4.24329e-06
5.32015e-06
6.43582e-06
7.46475e-06
8.51121e-06
9.57671e-06
1.06541e-05
1.17359e-05
1.28153e-05
1.38864e-05
1.49441e-05
1.59845e-05
1.70049e-05
1.80044e-05
1.89836e-05
1.9945e-05
2.08928e-05
2.18316e-05
2.27603e-05
2.36421e-05
2.44207e-05
2.51468e-05
2.58329e-05
2.64824e-05
2.70961e-05
2.76743e-05
2.82173e-05
2.87255e-05
2.91991e-05
2.96386e-05
3.00444e-05
3.0417e-05
3.07569e-05
3.10646e-05
3.13408e-05
3.15859e-05
3.18004e-05
3.19847e-05
3.21392e-05
3.2264e-05
3.23594e-05
3.24258e-05
3.24645e-05
3.24785e-05
3.2477e-05
3.24708e-05
3.24658e-05
3.2465e-05
3.24711e-05
3.24866e-05
3.25145e-05
3.25583e-05
3.26218e-05
3.27098e-05
3.28265e-05
3.29745e-05
3.31502e-05
3.33325e-05
3.34489e-05
3.33223e-05
3.29151e-05
3.24932e-05
3.20584e-05
3.16124e-05
3.1157e-05
3.06939e-05
3.02247e-05
2.97513e-05
2.92751e-05
2.87979e-05
2.83213e-05
2.78469e-05
2.73765e-05
2.69115e-05
2.64537e-05
2.60047e-05
2.5566e-05
2.51394e-05
2.47264e-05
2.43287e-05
2.39478e-05
2.35853e-05
2.32428e-05
2.29218e-05
2.26238e-05
2.23502e-05
2.21024e-05
2.18817e-05
2.16893e-05
2.15264e-05
2.13938e-05
2.12924e-05
2.12228e-05
2.11855e-05
2.11807e-05
2.12084e-05
2.12684e-05
2.13601e-05
2.14829e-05
2.16358e-05
2.18174e-05
2.20265e-05
2.22614e-05
2.25205e-05
2.28026e-05
2.31065e-05
2.34327e-05
2.37833e-05
2.41639e-05
2.45845e-05
2.50558e-05
2.55608e-05
2.60727e-05
2.65867e-05
2.71014e-05
2.7615e-05
2.81261e-05
2.86334e-05
2.91357e-05
2.9632e-05
3.01213e-05
3.06028e-05
3.10759e-05
3.154e-05
3.19947e-05
3.24396e-05
3.28744e-05
3.32989e-05
3.37131e-05
3.41169e-05
3.45111e-05
3.39395e-05
3.29119e-05
3.2041e-05
3.13105e-05
3.06941e-05
3.01715e-05
2.97263e-05
2.93457e-05
2.90194e-05
2.8739e-05
2.84974e-05
2.82891e-05
2.81091e-05
2.79535e-05
2.78188e-05
2.77022e-05
2.76012e-05
2.75136e-05
2.74378e-05
2.7372e-05
2.73149e-05
2.72653e-05
2.72222e-05
2.71847e-05
2.71519e-05
2.71233e-05
2.70981e-05
2.70758e-05
2.70559e-05
2.70381e-05
2.7022e-05
2.70074e-05
2.6994e-05
2.69819e-05
2.69714e-05
2.69629e-05
2.69562e-05
2.69513e-05
2.69481e-05
2.69466e-05
2.69465e-05
2.69477e-05
2.69502e-05
2.69538e-05
2.69583e-05
2.69637e-05
2.69698e-05
2.69766e-05
2.6984e-05
2.69918e-05
2.70002e-05
2.70089e-05
2.70179e-05
2.70273e-05
2.70369e-05
2.70467e-05
2.70568e-05
2.7067e-05
2.70774e-05
2.70879e-05
2.70986e-05
2.71094e-05
2.71204e-05
2.71315e-05
2.71428e-05
2.71542e-05
2.71657e-05
2.71775e-05
2.71894e-05
2.72014e-05
2.72137e-05
2.72262e-05
2.72389e-05
2.72518e-05
2.7265e-05
2.72784e-05
2.72921e-05
2.73061e-05
2.73205e-05
2.73351e-05
2.73502e-05
2.73656e-05
2.73814e-05
2.73976e-05
2.74142e-05
2.74313e-05
2.74489e-05
2.7467e-05
2.74856e-05
2.75047e-05
2.75245e-05
2.75448e-05
2.75657e-05
2.75873e-05
2.76096e-05
2.76326e-05
2.76563e-05
2.76807e-05
2.7706e-05
2.7732e-05
2.7759e-05
2.77867e-05
2.78154e-05
2.7845e-05
2.78756e-05
2.79073e-05
2.79399e-05
2.79736e-05
2.80085e-05
2.80444e-05
2.80816e-05
2.812e-05
2.81597e-05
2.82006e-05
2.82429e-05
2.82866e-05
2.83317e-05
2.83783e-05
2.84264e-05
2.8476e-05
2.85273e-05
2.85802e-05
2.86348e-05
2.86911e-05
2.87492e-05
2.88091e-05
2.88708e-05
2.89345e-05
2.90002e-05
2.90678e-05
2.91375e-05
2.92092e-05
2.92831e-05
2.93592e-05
2.94374e-05
2.95179e-05
2.96006e-05
2.96857e-05
2.9773e-05
2.98628e-05
2.99549e-05
3.00494e-05
3.01463e-05
3.02456e-05
3.03474e-05
3.04517e-05
3.05585e-05
3.06678e-05
3.07797e-05
3.08944e-05
3.10119e-05
3.11325e-05
3.12567e-05
3.13851e-05
3.15184e-05
3.16571e-05
3.18017e-05
3.19526e-05
3.21104e-05
3.22752e-05
3.24477e-05
3.26281e-05
3.28169e-05
3.30147e-05
3.32224e-05
3.34409e-05
3.36717e-05
3.3917e-05
3.418e-05
3.44652e-05
3.47793e-05
3.51322e-05
3.55381e-05
3.60182e-05
3.6603e-05
3.73371e-05
3.82855e-05
3.95429e-05
4.12477e-05
4.36021e-05
4.6904e-05
5.15937e-05
5.83257e-05
6.80779e-05
8.23142e-05
0.000103223
0.000134054
0.000179572
0.000246615
0.000344667
0.000486119
0.000685416
0.00095572
0.00130027
0.00170031
0.00209084
0.00239573
0.00242786
0.00243102
0.00243385
0.00243641
0.0024387
0.00244076
0.00244261
0.00244427
0.00244576
0.0024471
0.0024483
0.00244938
0.00245034
0.00245121
0.00245199
0.00245268
0.0024533
0.00245386
0.00245436
0.00245481
0.00245521
0.00245556
0.00245588
0.00245617
0.00245642
0.00245665
0.00245685
0.00245704
0.0024572
0.00245734
0.00245747
0.00245759
0.00245769
0.00245778
0.00245786
0.00245793
0.002458
0.00245805
0.0024581
0.00245815
0.00245819
0.00245823
0.00245826
0.00245829
0.00245831
0.00245833
0.00245835
0.00245837
0.00245839
0.0024584
0.00245841
0.00245842
0.00245843
0.00245844
0.00245845
0.00245845
0.00245846
0.00245847
0.00245847
0.00245847
0.00245848
0.00245848
0.00245848
0.00245849
0.00245849
0.00245849
0.00245849
0.00245849
0.00245849
0.0024585
0.0024585
0.0024585
0.0024585
0.0024585
0.0024585
0.0024585
0.0024585
0.0024585
0.0024585
0.0024585
0.0024585
0.0024585
0.0024585
0.0024585
0.0024585
0.0024585
0.0024585
0.0024585
0.0024585
0.0024585
0.0024585
0.0024585
0.0024585
0.0024585
0.0024585
0.0024585
0.0024585
0.0024585
0.0024585
0.0024585
0.0024585
0.0024585
0.0024585
0.0024585
0.0024585
0.0024585
0.0024585
0.0024585
0.0024585
0.0024585
0.0024585
0.0024585
0.0024585
0.0024585
0.0024585
0.0024585
0.0024585
0.0024585
0.0024585
0.0024585
0.0024585
0.0024585
0.0024585
0.0024585
0.0024585
0.0024585
0.0024585
0.0024585
0.0024585
0.0024585
0.0024585
0.0024585
0.0024585
0.0024585
0.0024585
0.0024585
0.0024585
0.0024585
0.0024585
0.0024585
0.0024585
0.0024585
0.0024585
0.0024585
0.0024585
0.0024585
0.0024585
0.0024585
0.0024585
0.0024585
0.0024585
0.0024585
0.0024585
0.0024585
0.0024585
0.0024585
0.0024585
0.0024585
0.0024585
0.0024585
0.0024585
0.0024585
0.0024585
0.0024585
0.0024585
0.0024585
0.0024585
0.0024585
0.0024585
0.0024585
0.0024585
0.0024585
0.0024585
0.0024585
0.0024585
0.0024585
0.0024585
0.0024585
0.0024585
0.0024585
0.0024585
0.0024585
0.0024585
0.0024585
0.0024585
0.0024585
0.0024585
0.0024585
0.0024585
0.0024585
0.0024585
0.0024585
0.0024585
0.0024585
0.0024585
0.0024585
0.0024585
0.0024585
0.0024585
0.0024585
0.0024585
0.0024585
0.0024585
0.0024585
0.0024585
0.0024585
0.0024585
0.0024585
0.0024585
0.0024585
0.0024585
0.0024585
0.0024585
0.0024585
0.0024585
0.0024585
0.0024585
0.0024585
0.0024585
0.0024585
0.0024585
0.0024585
0.0024585
0.0024585
0.0024585
0.0024585
0.0024585
0.0024585
0.0024585
0.0024585
0.0024585
0.0024585
0.0024585
0.0024585
0.0024585
0.0024585
0.0024585
0.0024585
0.0024585
0.0024585
0.0024585
0.0024585
0.0024585
0.0024585
0.0024585
0.0024585
0.0024585
0.0024585
0.0024585
0.0024585
0.0024585
0.0024585
0.0024585
0.0024585
0.0024585
0.0024585
0.0024585
0.0024585
0.0024585
0.0024585
0.0024585
0.0024585
0.0024585
0.0024585
0.0024585
0.0024585
0.0024585
0.0024585
0.0024585
0.0024585
0.0024585
0.0024585
0.0024585
0.0024585
0.0024585
0.0024585
0.0024585
0.0024585
0.0024585
0.0024585
0.0024585
0.0024585
0.0024585
0.0024585
0.0024585
0.0024585
0.0024585
0.0024585
0.0024585
0.0024585
0.0024585
0.0024585
0.0024585
0.0024585
0.0024585
0.0024585
0.0024585
0.0024585
0.0024585
0.0024585
0.0024585
0.0024585
0.0024585
0.0024585
0.0024585
0.0024585
0.0024585
0.0024585
0.0024585
0.0024585
0.0024585
0.0024585
0.0024585
0.0024585
0.0024585
0.0024585
0.0024585
0.0024585
0.0024585
0.0024585
0.0024585
0.0024585
0.0024585
0.0024585
0.0024585
0.0024585
0.0024585
0.0024585
0.0024585
0.0024585
0.0024585
0.0024585
0.0024585
0.0024585
0.0024585
0.0024585
0.0024585
0.0024585
0.0024585
0.0024585
0.0024585
0.0024585
0.0024585
0.0024585
0.0024585
0.0024585
0.0024585
0.0024585
0.0024585
0.0024585
0.0024585
0.0024585
0.0024585
0.0024585
0.0024585
0.0024585
0.0024585
0.0024585
0.0024585
0.0024585
0.0024585
0.0024585
0.0024585
0.0024585
0.0024585
0.0024585
0.0024585
0.0024585
0.0024585
0.0024585
0.0024585
0.0024585
0.0024585
0.0024585
0.0024585
0.0024585
0.0024585
0.0024585
0.0024585
0.0024585
0.0024585
0.0024585
0.0024585
0.0024585
0.0024585
0.0024585
0.0024585
0.0024585
0.0024585
0.0024585
0.0024585
0.0024585
0.0024585
0.0024585
0.0024585
0.0024585
0.0024585
0.0024585
0.0024585
0.0024585
0.0024585
0.0024585
0.0024585
0.0024585
0.0024585
0.0024585
0.0024585
0.0024585
0.0024585
0.0024585
0.0024585
0.0024585
0.0024585
0.0024585
0.0024585
0.0024585
0.0024585
0.0024585
0.0024585
0.0024585
0.0024585
0.0024585
0.0024585
0.0024585
0.0024585
0.0024585
0.0024585
0.0024585
0.0024585
0.0024585
0.0024585
0.0024585
0.0024585
0.0024585
0.0024585
0.0024585
0.0024585
0.0024585
0.0024585
0.0024585
0.0024585
0.0024585
0.0024585
0.0024585
0.0024585
0.0024585
0.0024585
0.0024585
0.0024585
0.0024585
0.0024585
0.0024585
0.0024585
0.0024585
0.0024585
0.0024585
0.0024585
0.0024585
0.0024585
0.0024585
0.0024585
0.0024585
0.0024585
0.0024585
0.0024585
0.0024585
0.0024585
0.0024585
0.0024585
0.0024585
0.0024585
0.0024585
0.0024585
0.0024585
0.0024585
0.0024585
0.0024585
0.0024585
0.0024585
0.0024585
0.0024585
0.0024585
0.0024585
0.0024585
0.0024585
0.0024585
0.0024585
0.0024585
0.0024585
0.0024585
0.0024585
0.0024585
0.0024585
0.0024585
0.0024585
0.0024585
0.0024585
0.0024585
0.0024585
0.0024585
0.0024585
0.0024585
0.0024585
0.0024585
0.0024585
0.0024585
0.0024585
0.0024585
0.0024585
0.0024585
0.0024585
0.0024585
0.0024585
0.0024585
0.0024585
0.0024585
0.0024585
0.0024585
0.0024585
0.0024585
0.0024585
0.0024585
0.0024585
0.0024585
0.0024585
0.0024585
0.0024585
0.0024585
0.0024585
0.0024585
0.0024585
0.0024585
0.0024585
0.0024585
0.0024585
0.0024585
0.0024585
0.0024585
0.0024585
0.0024585
0.0024585
0.0024585
0.0024585
0.0024585
0.0024585
0.0024585
0.0024585
0.0024585
0.0024585
0.0024585
0.0024585
0.0024585
0.0024585
0.0024585
0.0024585
0.0024585
0.0024585
0.0024585
0.0024585
0.0024585
0.0024585
0.0024585
0.0024585
0.0024585
0.0024585
0.0024585
0.0024585
0.0024585
0.0024585
0.0024585
0.0024585
0.0024585
0.0024585
0.0024585
0.0024585
0.0024585
0.0024585
0.0024585
0.0024585
0.0024585
0.0024585
0.0024585
0.0024585
0.0024585
0.0024585
0.0024585
0.0024585
0.0024585
0.0024585
0.0024585
0.0024585
0.0024585
0.0024585
0.0024585
0.0024585
0.0024585
0.0024585
0.0024585
0.0024585
0.0024585
0.0024585
0.0024585
0.0024585
0.0024585
0.0024585
0.0024585
0.0024585
0.0024585
0.0024585
0.0024585
0.0024585
0.0024585
0.0024585
0.0024585
0.0024585
0.0024585
0.0024585
0.0024585
0.0024585
0.0024585
0.0024585
0.0024585
0.0024585
0.0024585
0.0024585
0.0024585
0.0024585
0.0024585
0.0024585
0.0024585
0.0024585
0.0024585
0.0024585
0.0024585
0.0024585
0.0024585
0.0024585
0.0024585
0.0024585
0.0024585
0.0024585
0.0024585
0.0024585
0.0024585
0.0024585
0.0024585
0.0024585
0.0024585
0.0024585
0.0024585
0.0024585
0.0024585
0.0024585
0.0024585
0.0024585
0.0024585
0.0024585
0.0024585
0.0024585
0.0024585
0.0024585
0.0024585
0.0024585
0.0024585
0.0024585
0.0024585
0.0024585
0.0024585
0.0024585
0.0024585
0.0024585
0.0024585
0.0024585
0.0024585
0.0024585
0.0024585
0.0024585
0.0024585
0.0024585
0.0024585
0.0024585
0.0024585
0.0024585
0.0024585
0.0024585
0.0024585
0.0024585
0.0024585
0.0024585
0.0024585
0.0024585
0.0024585
0.0024585
0.0024585
0.0024585
0.0024585
0.0024585
0.0024585
0.0024585
0.0024585
0.0024585
0.0024585
0.0024585
0.0024585
0.0024585
0.0024585
0.0024585
0.0024585
0.0024585
0.0024585
0.0024585
0.0024585
0.0024585
0.0024585
0.0024585
0.0024585
0.0024585
0.0024585
0.0024585
0.0024585
0.0024585
0.0024585
0.0024585
0.0024585
0.0024585
0.0024585
0.0024585
0.0024585
0.0024585
0.0024585
0.0024585
0.0024585
0.0024585
0.0024585
0.0024585
0.0024585
0.0024585
0.0024585
0.0024585
0.0024585
0.0024585
0.0024585
0.0024585
0.0024585
0.0024585
0.0024585
0.0024585
0.0024585
0.0024585
0.0024585
0.0024585
0.0024585
0.0024585
0.0024585
0.0024585
0.0024585
0.0024585
0.0024585
0.0024585
0.0024585
0.0024585
0.0024585
0.0024585
0.0024585
0.0024585
0.0024585
0.0024585
0.0024585
0.0024585
0.0024585
0.0024585
0.0024585
0.0024585
0.0024585
0.0024585
0.0024585
0.0024585
0.0024585
0.0024585
0.0024585
0.0024585
0.0024585
0.0024585
0.0024585
0.0024585
0.0024585
0.0024585
0.0024585
0.0024585
0.0024585
0.0024585
0.0024585
0.0024585
0.0024585
0.0024585
0.0024585
0.0024585
0.0024585
0.0024585
0.0024585
0.0024585
0.0024585
0.0024585
0.0024585
0.0024585
0.0024585
0.0024585
0.0024585
0.0024585
0.0024585
0.0024585
0.0024585
0.0024585
0.0024585
0.0024585
0.0024585
0.0024585
0.0024585
0.0024585
0.0024585
0.0024585
0.0024585
0.0024585
0.0024585
0.0024585
0.0024585
0.0024585
0.0024585
0.0024585
0.0024585
0.0024585
0.0024585
0.0024585
0.0024585
0.0024585
0.0024585
0.0024585
0.0024585
0.0024585
0.0024585
0.0024585
0.0024585
0.0024585
0.0024585
0.0024585
0.0024585
0.0024585
0.0024585
0.0024585
0.0024585
0.0024585
0.0024585
0.0024585
0.0024585
0.0024585
0.0024585
0.0024585
0.0024585
0.0024585
0.0024585
0.0024585
0.0024585
0.0024585
0.0024585
0.0024585
0.0024585
0.0024585
0.0024585
0.0024585
0.0024585
0.0024585
0.0024585
0.0024585
0.0024585
0.0024585
0.0024585
0.0024585
0.0024585
0.0024585
0.0024585
0.0024585
0.0024585
0.0024585
0.0024585
0.0024585
0.0024585
0.0024585
0.0024585
0.0024585
0.0024585
0.0024585
0.0024585
0.0024585
0.0024585
0.0024585
0.0024585
0.0024585
0.0024585
0.0024585
0.0024585
0.0024585
0.0024585
0.0024585
0.0024585
0.0024585
0.0024585
0.0024585
0.0024585
0.0024585
0.0024585
0.0024585
0.0024585
0.0024585
0.0024585
0.0024585
0.0024585
0.0024585
0.0024585
0.0024585
0.0024585
0.0024585
0.0024585
0.0024585
0.0024585
0.0024585
0.0024585
0.0024585
0.0024585
0.0024585
0.0024585
0.0024585
0.0024585
0.0024585
0.0024585
0.0024585
0.0024585
0.0024585
0.0024585
0.0024585
0.0024585
0.0024585
0.0024585
0.0024585
0.0024585
0.0024585
0.0024585
0.0024585
0.0024585
0.0024585
0.0024585
0.0024585
0.0024585
0.0024585
0.0024585
0.0024585
0.0024585
0.0024585
0.0024585
0.0024585
0.0024585
0.0024585
0.0024585
0.0024585
0.0024585
0.0024585
0.0024585
0.0024585
0.0024585
0.0024585
0.0024585
0.0024585
0.0024585
0.0024585
0.0024585
0.0024585
0.0024585
0.0024585
0.0024585
0.0024585
0.0024585
0.0024585
0.0024585
0.0024585
0.0024585
0.0024585
0.0024585
0.0024585
0.0024585
0.0024585
0.0024585
0.0024585
0.0024585
0.0024585
0.0024585
0.0024585
0.0024585
0.0024585
0.0024585
0.0024585
0.0024585
0.0024585
0.0024585
0.0024585
0.0024585
0.0024585
0.0024585
0.0024585
0.0024585
0.0024585
0.0024585
0.0024585
0.0024585
0.0024585
0.0024585
0.0024585
0.0024585
0.0024585
0.0024585
0.0024585
0.0024585
0.0024585
0.0024585
0.0024585
0.0024585
0.0024585
0.0024585
0.0024585
0.0024585
0.0024585
0.0024585
0.0024585
0.0024585
0.0024585
0.0024585
0.0024585
0.0024585
0.0024585
0.0024585
0.0024585
0.0024585
0.0024585
0.0024585
0.0024585
0.0024585
0.0024585
0.0024585
0.0024585
0.0024585
0.0024585
0.0024585
0.0024585
0.0024585
0.0024585
0.0024585
0.0024585
0.0024585
0.0024585
0.0024585
0.0024585
0.0024585
0.0024585
0.0024585
0.0024585
0.0024585
0.0024585
0.0024585
0.0024585
0.0024585
0.0024585
0.0024585
0.0024585
0.0024585
0.0024585
0.0024585
0.0024585
0.0024585
0.0024585
0.0024585
0.0024585
0.0024585
0.0024585
0.0024585
0.0024585
0.0024585
0.0024585
0.0024585
0.0024585
0.0024585
0.0024585
0.0024585
0.0024585
0.0024585
0.0024585
0.0024585
0.0024585
0.0024585
0.0024585
0.0024585
0.0024585
0.0024585
0.0024585
0.0024585
0.0024585
0.0024585
0.0024585
0.0024585
0.0024585
0.0024585
0.0024585
0.0024585
0.0024585
0.0024585
0.0024585
0.0024585
0.0024585
0.0024585
0.0024585
0.0024585
0.0024585
0.0024585
0.0024585
0.0024585
0.0024585
0.0024585
0.0024585
0.0024585
0.0024585
0.0024585
0.0024585
0.0024585
0.0024585
0.0024585
0.0024585
0.0024585
0.0024585
0.0024585
0.0024585
0.0024585
0.0024585
0.0024585
0.0024585
0.0024585
0.0024585
0.0024585
0.0024585
0.0024585
0.0024585
0.0024585
0.0024585
0.0024585
0.0024585
0.0024585
0.0024585
0.0024585
0.0024585
0.0024585
0.0024585
0.0024585
0.0024585
0.0024585
0.0024585
0.0024585
0.0024585
0.0024585
0.0024585
0.0024585
0.0024585
0.0024585
0.0024585
0.0024585
0.0024585
0.0024585
0.0024585
0.0024585
0.0024585
0.0024585
0.0024585
0.0024585
0.0024585
0.0024585
0.0024585
0.0024585
0.0024585
0.0024585
0.0024585
0.0024585
0.0024585
0.0024585
0.0024585
0.0024585
0.0024585
0.0024585
0.0024585
0.0024585
0.0024585
0.0024585
0.0024585
0.0024585
0.0024585
0.0024585
0.0024585
0.0024585
0.0024585
0.0024585
0.0024585
0.0024585
0.0024585
0.0024585
0.0024585
0.0024585
0.0024585
0.0024585
0.0024585
0.0024585
0.0024585
0.0024585
0.0024585
0.0024585
0.0024585
0.0024585
0.0024585
0.0024585
0.0024585
0.0024585
0.0024585
0.0024585
0.0024585
0.0024585
0.0024585
0.0024585
0.0024585
0.0024585
0.0024585
0.0024585
0.0024585
0.0024585
0.0024585
0.0024585
0.0024585
0.0024585
0.0024585
0.0024585
0.0024585
0.0024585
0.0024585
0.0024585
0.0024585
0.0024585
0.0024585
0.00245849
0.00245849
0.00245849
0.00245849
0.00245849
0.00245849
0.00245848
0.00245848
0.00245848
0.00245847
0.00245847
0.00245847
0.00245846
0.00245845
0.00245845
0.00245844
0.00245843
0.00245842
0.00245841
0.0024584
0.00245839
0.00245837
0.00245835
0.00245833
0.00245831
0.00245829
0.00245826
0.00245823
0.00245819
0.00245815
0.0024581
0.00245805
0.002458
0.00245793
0.00245786
0.00245778
0.00245769
0.00245759
0.00245747
0.00245734
0.0024572
0.00245704
0.00245685
0.00245665
0.00245642
0.00245617
0.00245588
0.00245556
0.00245521
0.00245481
0.00245436
0.00245386
0.0024533
0.00245268
0.00245199
0.00245121
0.00245034
0.00244938
0.0024483
0.0024471
0.00244576
0.00244427
0.00244261
0.00244076
0.0024387
0.00243641
0.00243386
0.00243102
0.00242786
0.00239602
0.00209124
0.00170074
0.00130065
0.000956025
0.000685646
0.000486285
0.000344785
0.000246697
0.000179629
0.000134093
0.000103249
8.23319e-05
6.80898e-05
5.83337e-05
5.15992e-05
4.69079e-05
4.36049e-05
4.12497e-05
3.95445e-05
3.82867e-05
3.73381e-05
3.66038e-05
3.60189e-05
3.55387e-05
3.51327e-05
3.47798e-05
3.44656e-05
3.41804e-05
3.39174e-05
3.36721e-05
3.34412e-05
3.32227e-05
3.30151e-05
3.28172e-05
3.26284e-05
3.2448e-05
3.22755e-05
3.21106e-05
3.19529e-05
3.1802e-05
3.16574e-05
3.15187e-05
3.13854e-05
3.1257e-05
3.11328e-05
3.10121e-05
3.08946e-05
3.078e-05
3.06681e-05
3.05587e-05
3.0452e-05
3.03477e-05
3.02459e-05
3.01465e-05
3.00496e-05
2.99551e-05
2.9863e-05
2.97733e-05
2.96859e-05
2.96008e-05
2.95181e-05
2.94376e-05
2.93594e-05
2.92833e-05
2.92095e-05
2.91377e-05
2.9068e-05
2.90004e-05
2.89347e-05
2.8871e-05
2.88093e-05
2.87494e-05
2.86913e-05
2.8635e-05
2.85804e-05
2.85275e-05
2.84762e-05
2.84266e-05
2.83785e-05
2.83319e-05
2.82868e-05
2.82431e-05
2.82008e-05
2.81598e-05
2.81202e-05
2.80818e-05
2.80446e-05
2.80086e-05
2.79738e-05
2.79401e-05
2.79074e-05
2.78758e-05
2.78452e-05
2.78156e-05
2.77869e-05
2.77591e-05
2.77322e-05
2.77061e-05
2.76809e-05
2.76564e-05
2.76327e-05
2.76097e-05
2.75875e-05
2.75659e-05
2.75449e-05
2.75246e-05
2.75049e-05
2.74857e-05
2.74671e-05
2.7449e-05
2.74314e-05
2.74143e-05
2.73977e-05
2.73815e-05
2.73657e-05
2.73503e-05
2.73353e-05
2.73206e-05
2.73063e-05
2.72922e-05
2.72785e-05
2.72651e-05
2.72519e-05
2.7239e-05
2.72263e-05
2.72138e-05
2.72015e-05
2.71895e-05
2.71776e-05
2.71659e-05
2.71543e-05
2.71429e-05
2.71316e-05
2.71205e-05
2.71095e-05
2.70987e-05
2.7088e-05
2.70775e-05
2.70671e-05
2.70569e-05
2.70468e-05
2.7037e-05
2.70274e-05
2.7018e-05
2.7009e-05
2.70003e-05
2.69919e-05
2.6984e-05
2.69767e-05
2.69699e-05
2.69637e-05
2.69584e-05
2.69538e-05
2.69503e-05
2.69478e-05
2.69466e-05
2.69467e-05
2.69482e-05
2.69514e-05
2.69562e-05
2.69629e-05
2.69715e-05
2.6982e-05
2.6994e-05
2.70074e-05
2.70221e-05
2.70382e-05
2.7056e-05
2.70758e-05
2.70981e-05
2.71233e-05
2.7152e-05
2.71847e-05
2.72222e-05
2.72653e-05
2.73149e-05
2.7372e-05
2.74378e-05
2.75137e-05
2.76012e-05
2.77022e-05
2.78188e-05
2.79535e-05
2.81091e-05
2.82891e-05
2.84974e-05
2.8739e-05
2.90194e-05
2.93457e-05
2.97263e-05
3.01714e-05
3.06941e-05
3.13104e-05
3.20409e-05
3.29118e-05
3.39395e-05
3.45112e-05
3.4117e-05
3.37132e-05
3.3299e-05
3.28745e-05
3.24397e-05
3.19948e-05
3.15401e-05
3.1076e-05
3.06029e-05
3.01214e-05
2.96321e-05
2.91358e-05
2.86335e-05
2.81262e-05
2.76151e-05
2.71015e-05
2.65868e-05
2.60727e-05
2.55609e-05
2.50559e-05
2.45845e-05
2.4164e-05
2.37834e-05
2.34327e-05
2.31066e-05
2.28026e-05
2.25206e-05
2.22614e-05
2.20265e-05
2.18174e-05
2.16358e-05
2.14829e-05
2.13601e-05
2.12684e-05
2.12084e-05
2.11807e-05
2.11855e-05
2.12228e-05
2.12924e-05
2.13938e-05
2.15264e-05
2.16893e-05
2.18817e-05
2.21024e-05
2.23501e-05
2.26237e-05
2.29217e-05
2.32427e-05
2.35852e-05
2.39477e-05
2.43286e-05
2.47263e-05
2.51393e-05
2.55659e-05
2.60046e-05
2.64536e-05
2.69114e-05
2.73764e-05
2.78469e-05
2.83212e-05
2.87978e-05
2.9275e-05
2.97512e-05
3.02247e-05
3.06938e-05
3.11569e-05
3.16123e-05
3.20583e-05
3.24931e-05
3.2915e-05
3.33222e-05
3.34488e-05
3.33325e-05
3.31502e-05
3.29745e-05
3.28265e-05
3.27097e-05
3.26218e-05
3.25582e-05
3.25145e-05
3.24866e-05
3.2471e-05
3.2465e-05
3.24657e-05
3.24708e-05
3.24769e-05
3.24785e-05
3.24644e-05
3.24258e-05
3.23593e-05
3.22639e-05
3.21391e-05
3.19846e-05
3.18003e-05
3.15858e-05
3.13407e-05
3.10645e-05
3.07568e-05
3.04169e-05
3.00443e-05
2.96385e-05
2.9199e-05
2.87254e-05
2.82172e-05
2.76742e-05
2.7096e-05
2.64823e-05
2.58329e-05
2.51467e-05
2.44206e-05
2.3642e-05
2.27602e-05
2.18315e-05
2.08927e-05
1.99449e-05
1.89836e-05
1.80044e-05
1.70049e-05
1.59844e-05
1.4944e-05
1.38864e-05
1.28153e-05
1.17359e-05
1.0654e-05
9.57668e-06
8.51118e-06
7.46472e-06
6.43579e-06
5.32013e-06
4.24327e-06
3.25515e-06
2.38129e-06
1.64399e-06
1.0578e-06
6.24873e-07
3.32658e-07
1.55727e-07
6.186e-08
1.96896e-08
4.53913e-09
6.31719e-10
5.49384e-11
2.88461e-11
)
;

boundaryField
{
    top_wall
    {
        type            nutLowReWallFunction;
        value           uniform 0;
    }
    inlet
    {
        type            cyclic;
    }
    bot_wall
    {
        type            nutLowReWallFunction;
        value           uniform 0;
    }
    outlet
    {
        type            cyclic;
    }
    frontAndBack
    {
        type            empty;
    }
}


// ************************************************************************* //
