/*--------------------------------*- C++ -*----------------------------------*\
| =========                 |                                                 |
| \\      /  F ield         | OpenFOAM: The Open Source CFD Toolbox           |
|  \\    /   O peration     | Version:  2312                                  |
|   \\  /    A nd           | Website:  www.openfoam.com                      |
|    \\/     M anipulation  |                                                 |
\*---------------------------------------------------------------------------*/
FoamFile
{
    version     2.0;
    format      ascii;
    arch        "LSB;label=32;scalar=64";
    class       volScalarField;
    location    "22.05";
    object      k;
}
// * * * * * * * * * * * * * * * * * * * * * * * * * * * * * * * * * * * * * //

dimensions      [0 2 -2 0 0 0 0];

internalField   nonuniform List<scalar> 
1000
(
0.303527
0.298661
0.363713
0.42225
0.465453
0.4971
0.520842
0.53912
0.553511
0.565051
0.574446
0.582186
0.588626
0.594024
0.598577
0.602433
0.60571
0.608499
0.610875
0.612897
0.614613
0.616065
0.617285
0.618303
0.619141
0.619821
0.62036
0.620773
0.621072
0.621271
0.621377
0.6214
0.621349
0.621228
0.621045
0.620805
0.620513
0.620173
0.619789
0.619364
0.618902
0.618405
0.617876
0.617318
0.616732
0.61612
0.615485
0.614827
0.614149
0.613452
0.612737
0.612005
0.611257
0.610494
0.609718
0.608928
0.608126
0.607313
0.60649
0.605655
0.604812
0.603959
0.603098
0.602229
0.601352
0.600468
0.599578
0.59868
0.597777
0.596868
0.595954
0.595034
0.594109
0.59318
0.592246
0.591308
0.590366
0.58942
0.58847
0.587517
0.586561
0.585601
0.584638
0.583672
0.582704
0.581732
0.580758
0.579782
0.578803
0.577822
0.576839
0.575854
0.574866
0.573877
0.572885
0.571892
0.570897
0.5699
0.568902
0.567902
0.5669
0.565897
0.564892
0.563886
0.562878
0.561869
0.560858
0.559846
0.558833
0.557819
0.556803
0.555786
0.554768
0.553749
0.552728
0.551706
0.550683
0.549659
0.548634
0.547607
0.54658
0.545551
0.544522
0.543491
0.542459
0.541426
0.540392
0.539357
0.538321
0.537284
0.536245
0.535206
0.534166
0.533124
0.532082
0.531038
0.529994
0.528948
0.527901
0.526853
0.525805
0.524755
0.523704
0.522652
0.521599
0.520545
0.519489
0.518433
0.517376
0.516317
0.515258
0.514197
0.513135
0.512072
0.511009
0.509943
0.508877
0.50781
0.506742
0.505672
0.504601
0.50353
0.502457
0.501382
0.500307
0.499231
0.498153
0.497074
0.495994
0.494913
0.493831
0.492747
0.491663
0.490577
0.48949
0.488401
0.487312
0.486221
0.485129
0.484036
0.482941
0.481846
0.480749
0.479651
0.478551
0.477451
0.476349
0.475246
0.474141
0.473035
0.471928
0.47082
0.469711
0.4686
0.467488
0.466374
0.465259
0.464143
0.463026
0.461908
0.460788
0.459666
0.458544
0.45742
0.456295
0.455169
0.454041
0.452912
0.451781
0.45065
0.449517
0.448382
0.447247
0.44611
0.444971
0.443832
0.442691
0.441549
0.440405
0.43926
0.438114
0.436967
0.435818
0.434668
0.433516
0.432364
0.43121
0.430054
0.428898
0.42774
0.426581
0.42542
0.424258
0.423095
0.421931
0.420765
0.419599
0.41843
0.417261
0.41609
0.414919
0.413745
0.412571
0.411395
0.410219
0.409041
0.407861
0.406681
0.405499
0.404317
0.403133
0.401947
0.400761
0.399574
0.398385
0.397195
0.396004
0.394812
0.393619
0.392425
0.39123
0.390033
0.388836
0.387638
0.386438
0.385238
0.384036
0.382833
0.38163
0.380425
0.37922
0.378014
0.376806
0.375598
0.374389
0.373179
0.371968
0.370757
0.369544
0.368331
0.367117
0.365902
0.364686
0.36347
0.362253
0.361035
0.359816
0.358597
0.357377
0.356157
0.354936
0.353714
0.352492
0.35127
0.350047
0.348823
0.347599
0.346374
0.34515
0.343924
0.342699
0.341473
0.340247
0.33902
0.337794
0.336567
0.33534
0.334112
0.332885
0.331658
0.33043
0.329203
0.327975
0.326748
0.32552
0.324293
0.323066
0.321839
0.320613
0.319386
0.31816
0.316935
0.315709
0.314484
0.31326
0.312036
0.310813
0.30959
0.308368
0.307146
0.305925
0.304705
0.303486
0.302268
0.30105
0.299834
0.298618
0.297404
0.296191
0.294978
0.293767
0.292558
0.291349
0.290142
0.288937
0.287733
0.28653
0.285329
0.28413
0.282932
0.281736
0.280542
0.27935
0.27816
0.276972
0.275786
0.274602
0.27342
0.272241
0.271064
0.269889
0.268717
0.267547
0.26638
0.265216
0.264055
0.262896
0.26174
0.260588
0.259438
0.258291
0.257148
0.256008
0.254871
0.253738
0.252609
0.251483
0.25036
0.249242
0.248127
0.247017
0.24591
0.244808
0.243709
0.242615
0.241526
0.240441
0.23936
0.238285
0.237214
0.236147
0.235086
0.23403
0.232979
0.231933
0.230892
0.229857
0.228828
0.227804
0.226785
0.225773
0.224766
0.223766
0.222771
0.221783
0.220801
0.219826
0.218856
0.217894
0.216938
0.215989
0.215047
0.214112
0.213184
0.212264
0.21135
0.210444
0.209546
0.208655
0.207772
0.206897
0.206029
0.20517
0.204319
0.203476
0.202641
0.201815
0.200997
0.200188
0.199387
0.198596
0.197813
0.197039
0.196275
0.195519
0.194773
0.194037
0.193309
0.192592
0.191884
0.191185
0.190497
0.189818
0.18915
0.188491
0.187843
0.187205
0.186578
0.18596
0.185354
0.184757
0.184172
0.183597
0.183033
0.18248
0.181938
0.181407
0.180887
0.180378
0.179881
0.179395
0.17892
0.178456
0.178004
0.177563
0.177135
0.176717
0.176312
0.175918
0.175536
0.175166
0.174807
0.174461
0.174126
0.173804
0.173494
0.173196
0.17291
0.172636
0.172374
0.172125
0.171888
0.171663
0.17145
0.17125
0.171062
0.170887
0.170724
0.170574
0.170436
0.17031
0.170197
0.170097
0.170009
0.169934
0.169871
0.169821
0.169783
0.169758
0.169745
0.169745
0.169758
0.169783
0.169821
0.169871
0.169934
0.170009
0.170097
0.170197
0.17031
0.170436
0.170574
0.170724
0.170887
0.171062
0.17125
0.17145
0.171663
0.171888
0.172125
0.172374
0.172636
0.17291
0.173196
0.173494
0.173804
0.174127
0.174461
0.174807
0.175166
0.175536
0.175918
0.176312
0.176717
0.177135
0.177563
0.178004
0.178456
0.17892
0.179395
0.179881
0.180378
0.180887
0.181407
0.181938
0.18248
0.183033
0.183597
0.184172
0.184758
0.185354
0.18596
0.186578
0.187205
0.187843
0.188491
0.18915
0.189818
0.190497
0.191185
0.191884
0.192592
0.193309
0.194037
0.194773
0.195519
0.196275
0.197039
0.197813
0.198596
0.199387
0.200188
0.200997
0.201815
0.202641
0.203476
0.204319
0.20517
0.206029
0.206897
0.207772
0.208655
0.209546
0.210444
0.21135
0.212264
0.213184
0.214112
0.215047
0.215989
0.216938
0.217894
0.218857
0.219826
0.220801
0.221783
0.222771
0.223766
0.224766
0.225773
0.226785
0.227804
0.228828
0.229857
0.230892
0.231933
0.232979
0.23403
0.235086
0.236147
0.237214
0.238285
0.23936
0.240441
0.241526
0.242616
0.243709
0.244808
0.24591
0.247017
0.248127
0.249242
0.250361
0.251483
0.252609
0.253738
0.254872
0.256008
0.257148
0.258291
0.259438
0.260588
0.26174
0.262896
0.264055
0.265216
0.266381
0.267547
0.268717
0.269889
0.271064
0.272241
0.27342
0.274602
0.275786
0.276972
0.27816
0.27935
0.280542
0.281736
0.282932
0.28413
0.285329
0.28653
0.287733
0.288937
0.290142
0.291349
0.292558
0.293768
0.294978
0.296191
0.297404
0.298618
0.299834
0.30105
0.302268
0.303486
0.304705
0.305925
0.307146
0.308368
0.30959
0.310813
0.312036
0.31326
0.314484
0.315709
0.316935
0.31816
0.319386
0.320613
0.321839
0.323066
0.324293
0.325521
0.326748
0.327975
0.329203
0.33043
0.331658
0.332885
0.334112
0.33534
0.336567
0.337794
0.33902
0.340247
0.341473
0.342699
0.343924
0.34515
0.346375
0.347599
0.348823
0.350047
0.35127
0.352492
0.353714
0.354936
0.356157
0.357377
0.358597
0.359816
0.361035
0.362253
0.36347
0.364686
0.365902
0.367117
0.368331
0.369544
0.370757
0.371968
0.373179
0.374389
0.375598
0.376806
0.378014
0.37922
0.380426
0.38163
0.382834
0.384036
0.385238
0.386438
0.387638
0.388836
0.390033
0.39123
0.392425
0.393619
0.394812
0.396004
0.397195
0.398385
0.399574
0.400761
0.401947
0.403133
0.404317
0.405499
0.406681
0.407861
0.409041
0.410219
0.411396
0.412571
0.413745
0.414919
0.41609
0.417261
0.41843
0.419599
0.420765
0.421931
0.423095
0.424258
0.42542
0.426581
0.42774
0.428898
0.430054
0.43121
0.432364
0.433516
0.434668
0.435818
0.436967
0.438114
0.43926
0.440405
0.441549
0.442691
0.443832
0.444971
0.44611
0.447247
0.448382
0.449517
0.45065
0.451781
0.452912
0.454041
0.455169
0.456295
0.45742
0.458544
0.459666
0.460788
0.461908
0.463026
0.464143
0.465259
0.466374
0.467488
0.4686
0.469711
0.47082
0.471928
0.473035
0.474141
0.475246
0.476349
0.477451
0.478551
0.479651
0.480749
0.481846
0.482941
0.484036
0.485129
0.486221
0.487312
0.488401
0.48949
0.490577
0.491663
0.492747
0.493831
0.494913
0.495994
0.497074
0.498153
0.499231
0.500307
0.501382
0.502457
0.50353
0.504601
0.505672
0.506742
0.50781
0.508877
0.509943
0.511009
0.512072
0.513135
0.514197
0.515258
0.516317
0.517376
0.518433
0.519489
0.520545
0.521599
0.522652
0.523704
0.524755
0.525805
0.526853
0.527901
0.528948
0.529994
0.531038
0.532082
0.533124
0.534166
0.535206
0.536245
0.537284
0.538321
0.539357
0.540392
0.541426
0.542459
0.543491
0.544522
0.545551
0.54658
0.547607
0.548634
0.549659
0.550683
0.551706
0.552728
0.553749
0.554768
0.555786
0.556803
0.557819
0.558833
0.559846
0.560858
0.561869
0.562878
0.563886
0.564892
0.565897
0.5669
0.567902
0.568902
0.5699
0.570897
0.571892
0.572885
0.573877
0.574866
0.575854
0.576839
0.577822
0.578803
0.579782
0.580758
0.581732
0.582704
0.583672
0.584638
0.585601
0.586561
0.587517
0.58847
0.58942
0.590366
0.591308
0.592246
0.59318
0.594109
0.595034
0.595954
0.596868
0.597777
0.59868
0.599578
0.600468
0.601352
0.602229
0.603098
0.603959
0.604812
0.605655
0.60649
0.607313
0.608126
0.608928
0.609718
0.610494
0.611257
0.612005
0.612737
0.613452
0.614149
0.614827
0.615485
0.61612
0.616732
0.617318
0.617876
0.618405
0.618902
0.619364
0.619789
0.620173
0.620513
0.620805
0.621045
0.621228
0.621349
0.6214
0.621377
0.621271
0.621072
0.620773
0.62036
0.619821
0.619141
0.618303
0.617285
0.616065
0.614613
0.612897
0.610875
0.608499
0.60571
0.602433
0.598577
0.594024
0.588626
0.582186
0.574446
0.565051
0.553511
0.53912
0.520842
0.4971
0.465453
0.42225
0.363713
0.298661
0.303527
)
;

boundaryField
{
    top_wall
    {
        type            kLowReWallFunction;
        value           uniform 0.00289984;
    }
    inlet
    {
        type            cyclic;
    }
    bot_wall
    {
        type            kLowReWallFunction;
        value           uniform 0.00289984;
    }
    outlet
    {
        type            cyclic;
    }
    frontAndBack
    {
        type            empty;
    }
}


// ************************************************************************* //
