/*--------------------------------*- C++ -*----------------------------------*\
| =========                 |                                                 |
| \\      /  F ield         | OpenFOAM: The Open Source CFD Toolbox           |
|  \\    /   O peration     | Version:  2312                                  |
|   \\  /    A nd           | Website:  www.openfoam.com                      |
|    \\/     M anipulation  |                                                 |
\*---------------------------------------------------------------------------*/
FoamFile
{
    version     2.0;
    format      ascii;
    arch        "LSB;label=32;scalar=64";
    class       volScalarField;
    location    "22.05";
    object      nut;
}
// * * * * * * * * * * * * * * * * * * * * * * * * * * * * * * * * * * * * * //

dimensions      [0 2 -1 0 0 0 0];

internalField   nonuniform List<scalar> 
1000
(
3.09317e-06
6.2561e-06
1.3382e-05
2.26022e-05
3.25139e-05
4.25848e-05
5.26297e-05
6.25828e-05
7.24218e-05
8.21411e-05
9.17421e-05
0.000101229
0.000110605
0.000119877
0.000129049
0.000138125
0.000147109
0.000156005
0.000164817
0.000173546
0.000182197
0.000190771
0.00019927
0.000207697
0.000216054
0.000224342
0.000232563
0.000240719
0.00024881
0.000256839
0.000264806
0.000272712
0.000280559
0.000288347
0.000296078
0.000303752
0.00031137
0.000318933
0.000326441
0.000333896
0.000341298
0.000348647
0.000355945
0.000363191
0.000370387
0.000377532
0.000384628
0.000391674
0.000398671
0.000405621
0.000412522
0.000419375
0.000426182
0.000432941
0.000439654
0.000446321
0.000452943
0.000459518
0.000466049
0.000472534
0.000478975
0.000485372
0.000491724
0.000498033
0.000504298
0.000510519
0.000516698
0.000522834
0.000528927
0.000534977
0.000540985
0.000546951
0.000552876
0.000558758
0.0005646
0.000570399
0.000576158
0.000581876
0.000587553
0.000593189
0.000598785
0.000604341
0.000609856
0.000615331
0.000620767
0.000626163
0.000631519
0.000636836
0.000642113
0.000647352
0.000652551
0.000657712
0.000662833
0.000667916
0.000672961
0.000677967
0.000682935
0.000687865
0.000692756
0.00069761
0.000702426
0.000707204
0.000711945
0.000716648
0.000721314
0.000725943
0.000730534
0.000735089
0.000739606
0.000744087
0.000748531
0.000752939
0.000757309
0.000761644
0.000765942
0.000770204
0.00077443
0.00077862
0.000782774
0.000786892
0.000790975
0.000795022
0.000799033
0.000803009
0.00080695
0.000810855
0.000814726
0.000818561
0.000822362
0.000826127
0.000829858
0.000833554
0.000837216
0.000840843
0.000844436
0.000847995
0.00085152
0.00085501
0.000858467
0.000861889
0.000865278
0.000868633
0.000871955
0.000875243
0.000878498
0.000881719
0.000884907
0.000888062
0.000891184
0.000894273
0.00089733
0.000900353
0.000903344
0.000906303
0.000909228
0.000912122
0.000914983
0.000917813
0.00092061
0.000923375
0.000926108
0.00092881
0.000931479
0.000934118
0.000936724
0.0009393
0.000941844
0.000944357
0.000946838
0.000949289
0.000951709
0.000954098
0.000956456
0.000958784
0.000961082
0.000963348
0.000965585
0.000967791
0.000969967
0.000972114
0.00097423
0.000976316
0.000978373
0.0009804
0.000982398
0.000984366
0.000986305
0.000988215
0.000990095
0.000991947
0.00099377
0.000995563
0.000997329
0.000999065
0.00100077
0.00100245
0.0010041
0.00100573
0.00100732
0.00100889
0.00101043
0.00101194
0.00101342
0.00101488
0.00101631
0.00101771
0.00101909
0.00102043
0.00102175
0.00102305
0.00102431
0.00102555
0.00102677
0.00102795
0.00102911
0.00103025
0.00103135
0.00103244
0.00103349
0.00103452
0.00103553
0.0010365
0.00103746
0.00103838
0.00103929
0.00104016
0.00104102
0.00104184
0.00104265
0.00104342
0.00104418
0.0010449
0.00104561
0.00104629
0.00104694
0.00104758
0.00104818
0.00104877
0.00104933
0.00104987
0.00105038
0.00105087
0.00105134
0.00105178
0.0010522
0.0010526
0.00105297
0.00105333
0.00105366
0.00105396
0.00105425
0.00105451
0.00105475
0.00105497
0.00105517
0.00105535
0.0010555
0.00105563
0.00105575
0.00105584
0.00105591
0.00105595
0.00105598
0.00105599
0.00105598
0.00105594
0.00105589
0.00105582
0.00105572
0.00105561
0.00105548
0.00105533
0.00105515
0.00105496
0.00105475
0.00105452
0.00105428
0.00105401
0.00105372
0.00105342
0.0010531
0.00105276
0.0010524
0.00105202
0.00105163
0.00105122
0.00105079
0.00105035
0.00104988
0.0010494
0.00104891
0.00104839
0.00104786
0.00104732
0.00104676
0.00104618
0.00104559
0.00104498
0.00104435
0.00104371
0.00104305
0.00104238
0.0010417
0.001041
0.00104028
0.00103956
0.00103881
0.00103806
0.00103728
0.0010365
0.0010357
0.00103489
0.00103407
0.00103323
0.00103238
0.00103152
0.00103064
0.00102976
0.00102886
0.00102795
0.00102702
0.00102609
0.00102515
0.00102419
0.00102322
0.00102225
0.00102126
0.00102026
0.00101925
0.00101824
0.00101721
0.00101617
0.00101513
0.00101407
0.00101301
0.00101194
0.00101086
0.00100977
0.00100868
0.00100757
0.00100646
0.00100534
0.00100422
0.00100309
0.00100195
0.00100081
0.000999659
0.000998504
0.000997343
0.000996177
0.000995006
0.000993831
0.000992651
0.000991467
0.000990279
0.000989088
0.000987893
0.000986694
0.000985493
0.00098429
0.000983083
0.000981875
0.000980665
0.000979454
0.000978241
0.000977027
0.000975813
0.000974598
0.000973382
0.000972167
0.000970952
0.000969738
0.000968525
0.000967313
0.000966103
0.000964894
0.000963688
0.000962483
0.000961282
0.000960083
0.000958888
0.000957696
0.000956508
0.000955324
0.000954144
0.000952969
0.000951799
0.000950634
0.000949474
0.000948321
0.000947173
0.000946032
0.000944897
0.000943769
0.000942649
0.000941536
0.000940431
0.000939333
0.000938244
0.000937164
0.000936092
0.000935029
0.000933976
0.000932932
0.000931898
0.000930874
0.00092986
0.000928857
0.000927865
0.000926883
0.000925913
0.000924955
0.000924007
0.000923072
0.000922149
0.000921238
0.00092034
0.000919454
0.000918581
0.00091772
0.000916873
0.00091604
0.000915219
0.000914412
0.000913619
0.000912839
0.000912074
0.000911322
0.000910585
0.000909861
0.000909152
0.000908458
0.000907777
0.000907111
0.000906459
0.000905822
0.000905199
0.000904591
0.000903997
0.000903418
0.000902853
0.000902302
0.000901765
0.000901243
0.000900735
0.000900242
0.000899762
0.000899296
0.000898844
0.000898405
0.00089798
0.000897569
0.000897171
0.000896786
0.000896414
0.000896054
0.000895708
0.000895373
0.000895051
0.000894741
0.000894443
0.000894156
0.000893881
0.000893616
0.000893363
0.000893121
0.000892888
0.000892666
0.000892455
0.000892252
0.00089206
0.000891876
0.000891702
0.000891536
0.000891379
0.00089123
0.000891089
0.000890956
0.000890831
0.000890713
0.000890602
0.000890499
0.000890402
0.000890311
0.000890227
0.000890149
0.000890077
0.000890011
0.000889951
0.000889896
0.000889846
0.000889802
0.000889763
0.000889729
0.000889701
0.000889677
0.000889658
0.000889643
0.000889634
0.000889629
0.000889629
0.000889634
0.000889643
0.000889658
0.000889677
0.000889701
0.00088973
0.000889763
0.000889802
0.000889846
0.000889896
0.000889951
0.000890011
0.000890077
0.000890149
0.000890227
0.000890311
0.000890402
0.000890499
0.000890602
0.000890713
0.000890831
0.000890957
0.000891089
0.00089123
0.000891379
0.000891536
0.000891702
0.000891876
0.00089206
0.000892252
0.000892455
0.000892667
0.000892889
0.000893121
0.000893363
0.000893617
0.000893881
0.000894156
0.000894443
0.000894741
0.000895051
0.000895373
0.000895708
0.000896054
0.000896414
0.000896786
0.000897171
0.000897569
0.000897981
0.000898406
0.000898844
0.000899296
0.000899762
0.000900242
0.000900736
0.000901244
0.000901766
0.000902302
0.000902853
0.000903418
0.000903997
0.000904591
0.000905199
0.000905822
0.000906459
0.000907111
0.000907777
0.000908458
0.000909153
0.000909862
0.000910585
0.000911323
0.000912074
0.00091284
0.000913619
0.000914412
0.000915219
0.00091604
0.000916874
0.000917721
0.000918581
0.000919454
0.00092034
0.000921238
0.000922149
0.000923073
0.000924008
0.000924955
0.000925914
0.000926884
0.000927865
0.000928857
0.000929861
0.000930874
0.000931898
0.000932932
0.000933976
0.000935029
0.000936092
0.000937164
0.000938244
0.000939334
0.000940431
0.000941536
0.000942649
0.00094377
0.000944898
0.000946032
0.000947173
0.000948321
0.000949475
0.000950634
0.000951799
0.000952969
0.000954144
0.000955324
0.000956508
0.000957696
0.000958888
0.000960084
0.000961282
0.000962484
0.000963688
0.000964895
0.000966103
0.000967314
0.000968526
0.000969739
0.000970953
0.000972168
0.000973383
0.000974598
0.000975813
0.000977027
0.000978241
0.000979454
0.000980666
0.000981876
0.000983084
0.00098429
0.000985494
0.000986695
0.000987893
0.000989088
0.00099028
0.000991468
0.000992652
0.000993831
0.000995007
0.000996178
0.000997343
0.000998504
0.000999659
0.00100081
0.00100195
0.00100309
0.00100422
0.00100535
0.00100646
0.00100757
0.00100868
0.00100977
0.00101086
0.00101194
0.00101301
0.00101407
0.00101513
0.00101617
0.00101721
0.00101824
0.00101925
0.00102026
0.00102126
0.00102225
0.00102322
0.00102419
0.00102515
0.00102609
0.00102702
0.00102795
0.00102886
0.00102976
0.00103064
0.00103152
0.00103238
0.00103323
0.00103407
0.00103489
0.0010357
0.0010365
0.00103729
0.00103806
0.00103881
0.00103956
0.00104028
0.001041
0.0010417
0.00104238
0.00104306
0.00104371
0.00104435
0.00104498
0.00104559
0.00104618
0.00104676
0.00104732
0.00104787
0.00104839
0.00104891
0.0010494
0.00104988
0.00105035
0.00105079
0.00105122
0.00105163
0.00105202
0.0010524
0.00105276
0.0010531
0.00105342
0.00105372
0.00105401
0.00105428
0.00105452
0.00105475
0.00105496
0.00105515
0.00105533
0.00105548
0.00105561
0.00105572
0.00105582
0.00105589
0.00105594
0.00105598
0.00105599
0.00105598
0.00105596
0.00105591
0.00105584
0.00105575
0.00105563
0.0010555
0.00105535
0.00105517
0.00105497
0.00105475
0.00105451
0.00105425
0.00105396
0.00105366
0.00105333
0.00105297
0.0010526
0.0010522
0.00105178
0.00105134
0.00105087
0.00105038
0.00104987
0.00104933
0.00104877
0.00104818
0.00104758
0.00104694
0.00104629
0.00104561
0.00104491
0.00104418
0.00104342
0.00104265
0.00104184
0.00104102
0.00104016
0.00103929
0.00103838
0.00103746
0.0010365
0.00103553
0.00103452
0.00103349
0.00103244
0.00103135
0.00103025
0.00102911
0.00102795
0.00102677
0.00102555
0.00102431
0.00102305
0.00102175
0.00102043
0.00101909
0.00101771
0.00101631
0.00101488
0.00101342
0.00101194
0.00101043
0.00100889
0.00100732
0.00100573
0.0010041
0.00100245
0.00100077
0.000999065
0.000997329
0.000995564
0.00099377
0.000991947
0.000990095
0.000988215
0.000986305
0.000984366
0.000982398
0.0009804
0.000978373
0.000976316
0.00097423
0.000972114
0.000969968
0.000967791
0.000965585
0.000963348
0.000961082
0.000958784
0.000956457
0.000954098
0.000951709
0.000949289
0.000946838
0.000944357
0.000941844
0.0009393
0.000936724
0.000934118
0.000931479
0.00092881
0.000926108
0.000923375
0.00092061
0.000917813
0.000914983
0.000912122
0.000909229
0.000906303
0.000903344
0.000900353
0.00089733
0.000894273
0.000891184
0.000888062
0.000884907
0.000881719
0.000878498
0.000875243
0.000871955
0.000868633
0.000865278
0.000861889
0.000858467
0.00085501
0.00085152
0.000847995
0.000844436
0.000840844
0.000837216
0.000833555
0.000829858
0.000826127
0.000822362
0.000818561
0.000814726
0.000810856
0.00080695
0.000803009
0.000799033
0.000795022
0.000790975
0.000786892
0.000782774
0.00077862
0.00077443
0.000770204
0.000765942
0.000761644
0.000757309
0.000752939
0.000748531
0.000744087
0.000739606
0.000735089
0.000730534
0.000725943
0.000721314
0.000716648
0.000711945
0.000707204
0.000702426
0.00069761
0.000692756
0.000687865
0.000682935
0.000677967
0.000672961
0.000667916
0.000662833
0.000657712
0.000652551
0.000647352
0.000642113
0.000636836
0.000631519
0.000626163
0.000620767
0.000615331
0.000609856
0.000604341
0.000598785
0.000593189
0.000587553
0.000581876
0.000576158
0.000570399
0.0005646
0.000558758
0.000552876
0.000546951
0.000540985
0.000534977
0.000528927
0.000522834
0.000516698
0.000510519
0.000504298
0.000498033
0.000491724
0.000485372
0.000478975
0.000472534
0.000466049
0.000459518
0.000452943
0.000446321
0.000439654
0.000432941
0.000426182
0.000419375
0.000412522
0.000405621
0.000398671
0.000391674
0.000384628
0.000377532
0.000370387
0.000363191
0.000355945
0.000348647
0.000341298
0.000333896
0.000326441
0.000318933
0.00031137
0.000303752
0.000296078
0.000288347
0.000280559
0.000272712
0.000264806
0.000256839
0.00024881
0.000240719
0.000232563
0.000224342
0.000216054
0.000207697
0.00019927
0.000190771
0.000182197
0.000173546
0.000164817
0.000156005
0.000147109
0.000138125
0.000129049
0.000119877
0.000110605
0.000101229
9.17421e-05
8.21411e-05
7.24218e-05
6.25828e-05
5.26297e-05
4.25848e-05
3.25139e-05
2.26022e-05
1.3382e-05
6.2561e-06
3.09317e-06
)
;

boundaryField
{
    top_wall
    {
        type            nutLowReWallFunction;
        value           uniform 0;
    }
    inlet
    {
        type            cyclic;
    }
    bot_wall
    {
        type            nutLowReWallFunction;
        value           uniform 0;
    }
    outlet
    {
        type            cyclic;
    }
    frontAndBack
    {
        type            empty;
    }
}


// ************************************************************************* //
