/*--------------------------------*- C++ -*----------------------------------*\
| =========                 |                                                 |
| \\      /  F ield         | OpenFOAM: The Open Source CFD Toolbox           |
|  \\    /   O peration     | Version:  2312                                  |
|   \\  /    A nd           | Website:  www.openfoam.com                      |
|    \\/     M anipulation  |                                                 |
\*---------------------------------------------------------------------------*/
FoamFile
{
    version     2.0;
    format      ascii;
    arch        "LSB;label=32;scalar=64";
    class       volVectorField;
    location    "22.05";
    object      U;
}
// * * * * * * * * * * * * * * * * * * * * * * * * * * * * * * * * * * * * * //

dimensions      [0 1 -1 0 0 0 0];

internalField   nonuniform List<vector> 
1000
(
(0.356659 -2.73735e-18 0)
(0.900724 -5.75716e-18 0)
(1.33186 -5.4204e-18 0)
(1.65604 -5.2065e-18 0)
(1.90713 -5.16741e-18 0)
(2.11022 -5.17607e-18 0)
(2.28042 -5.18085e-18 0)
(2.42696 -5.18127e-18 0)
(2.5557 -5.18223e-18 0)
(2.67059 -5.18569e-18 0)
(2.77442 -5.19048e-18 0)
(2.86918 -5.19582e-18 0)
(2.9564 -5.20187e-18 0)
(3.03722 -5.2079e-18 0)
(3.11256 -5.21247e-18 0)
(3.18314 -5.21505e-18 0)
(3.24955 -5.21588e-18 0)
(3.31229 -5.21505e-18 0)
(3.37174 -5.21252e-18 0)
(3.42826 -5.21218e-18 0)
(3.48213 -5.20952e-18 0)
(3.5336 -5.20581e-18 0)
(3.58289 -5.20653e-18 0)
(3.63018 -5.22006e-18 0)
(3.67563 -5.23247e-18 0)
(3.71939 -5.22889e-18 0)
(3.7616 -5.22253e-18 0)
(3.80235 -5.21924e-18 0)
(3.84175 -5.22528e-18 0)
(3.8799 -5.22961e-18 0)
(3.91687 -5.222e-18 0)
(3.95274 -5.21178e-18 0)
(3.98757 -5.20759e-18 0)
(4.02144 -5.20154e-18 0)
(4.05438 -5.18628e-18 0)
(4.08646 -5.16829e-18 0)
(4.11773 -5.1535e-18 0)
(4.14822 -5.16853e-18 0)
(4.17797 -5.1838e-18 0)
(4.20702 -5.17101e-18 0)
(4.23541 -5.15639e-18 0)
(4.26316 -5.14368e-18 0)
(4.29032 -5.13244e-18 0)
(4.31689 -5.12125e-18 0)
(4.34292 -5.10972e-18 0)
(4.36842 -5.10244e-18 0)
(4.39341 -5.09915e-18 0)
(4.41792 -5.0939e-18 0)
(4.44197 -5.08389e-18 0)
(4.46557 -5.07164e-18 0)
(4.48874 -5.0647e-18 0)
(4.5115 -5.06152e-18 0)
(4.53387 -5.05284e-18 0)
(4.55586 -5.03921e-18 0)
(4.57747 -5.02497e-18 0)
(4.59874 -5.01136e-18 0)
(4.61966 -4.9981e-18 0)
(4.64025 -4.9867e-18 0)
(4.66052 -4.97708e-18 0)
(4.68048 -4.96766e-18 0)
(4.70014 -4.95861e-18 0)
(4.71952 -4.9499e-18 0)
(4.73861 -4.94151e-18 0)
(4.75744 -4.9334e-18 0)
(4.776 -4.92557e-18 0)
(4.7943 -4.91798e-18 0)
(4.81236 -4.91061e-18 0)
(4.83018 -4.90345e-18 0)
(4.84777 -4.89648e-18 0)
(4.86513 -4.88969e-18 0)
(4.88227 -4.88305e-18 0)
(4.89919 -4.87655e-18 0)
(4.91591 -4.87018e-18 0)
(4.93242 -4.86392e-18 0)
(4.94874 -4.85777e-18 0)
(4.96486 -4.8517e-18 0)
(4.9808 -4.84571e-18 0)
(4.99656 -4.83978e-18 0)
(5.01214 -4.8339e-18 0)
(5.02754 -4.82806e-18 0)
(5.04278 -4.82225e-18 0)
(5.05785 -4.81646e-18 0)
(5.07276 -4.81068e-18 0)
(5.08751 -4.80492e-18 0)
(5.10212 -4.79915e-18 0)
(5.11657 -4.79339e-18 0)
(5.13087 -4.78763e-18 0)
(5.14503 -4.78187e-18 0)
(5.15905 -4.77611e-18 0)
(5.17294 -4.77035e-18 0)
(5.18669 -4.7646e-18 0)
(5.20031 -4.75886e-18 0)
(5.21381 -4.75314e-18 0)
(5.22718 -4.74743e-18 0)
(5.24042 -4.74174e-18 0)
(5.25355 -4.73606e-18 0)
(5.26656 -4.7303e-18 0)
(5.27945 -4.72584e-18 0)
(5.29223 -4.72421e-18 0)
(5.3049 -4.72378e-18 0)
(5.31747 -4.72309e-18 0)
(5.32992 -4.72216e-18 0)
(5.34228 -4.72104e-18 0)
(5.35453 -4.71805e-18 0)
(5.36668 -4.71297e-18 0)
(5.37873 -4.7087e-18 0)
(5.39069 -4.70553e-18 0)
(5.40255 -4.69324e-18 0)
(5.41432 -4.67227e-18 0)
(5.426 -4.64798e-18 0)
(5.43759 -4.62708e-18 0)
(5.44909 -4.61256e-18 0)
(5.4605 -4.59693e-18 0)
(5.47183 -4.58191e-18 0)
(5.48308 -4.56879e-18 0)
(5.49425 -4.55734e-18 0)
(5.50533 -4.54747e-18 0)
(5.51634 -4.54071e-18 0)
(5.52727 -4.53896e-18 0)
(5.53812 -4.53715e-18 0)
(5.5489 -4.52455e-18 0)
(5.5596 -4.51307e-18 0)
(5.57024 -4.51459e-18 0)
(5.5808 -4.51836e-18 0)
(5.59129 -4.51952e-18 0)
(5.60171 -4.5185e-18 0)
(5.61206 -4.51699e-18 0)
(5.62235 -4.51659e-18 0)
(5.63257 -4.51723e-18 0)
(5.64273 -4.52054e-18 0)
(5.65282 -4.52739e-18 0)
(5.66285 -4.52521e-18 0)
(5.67281 -4.49649e-18 0)
(5.68272 -4.4678e-18 0)
(5.69257 -4.46574e-18 0)
(5.70236 -4.47181e-18 0)
(5.71208 -4.4635e-18 0)
(5.72176 -4.43076e-18 0)
(5.73137 -4.39676e-18 0)
(5.74093 -4.38466e-18 0)
(5.75044 -4.3839e-18 0)
(5.75989 -4.3745e-18 0)
(5.76928 -4.36339e-18 0)
(5.77863 -4.35241e-18 0)
(5.78792 -4.34343e-18 0)
(5.79716 -4.3439e-18 0)
(5.80635 -4.34543e-18 0)
(5.81549 -4.34917e-18 0)
(5.82458 -4.35009e-18 0)
(5.83363 -4.31656e-18 0)
(5.84262 -4.28247e-18 0)
(5.85157 -4.28303e-18 0)
(5.86047 -4.28819e-18 0)
(5.86933 -4.29309e-18 0)
(5.87814 -4.2985e-18 0)
(5.8869 -4.30649e-18 0)
(5.89562 -4.31844e-18 0)
(5.9043 -4.32395e-18 0)
(5.91294 -4.31103e-18 0)
(5.92153 -4.28903e-18 0)
(5.93008 -4.26705e-18 0)
(5.93859 -4.24493e-18 0)
(5.94705 -4.22267e-18 0)
(5.95548 -4.20708e-18 0)
(5.96387 -4.19668e-18 0)
(5.97221 -4.18128e-18 0)
(5.98052 -4.15575e-18 0)
(5.98879 -4.12115e-18 0)
(5.99702 -4.09585e-18 0)
(6.00521 -4.0794e-18 0)
(6.01337 -4.06724e-18 0)
(6.02149 -4.04549e-18 0)
(6.02957 -4.01818e-18 0)
(6.03761 -4.00029e-18 0)
(6.04562 -3.98135e-18 0)
(6.0536 -3.94624e-18 0)
(6.06154 -3.90345e-18 0)
(6.06944 -3.86954e-18 0)
(6.07731 -3.8392e-18 0)
(6.08515 -3.80341e-18 0)
(6.09296 -3.77894e-18 0)
(6.10073 -3.77571e-18 0)
(6.10846 -3.74518e-18 0)
(6.11617 -3.7076e-18 0)
(6.12384 -3.67267e-18 0)
(6.13148 -3.64553e-18 0)
(6.13909 -3.63948e-18 0)
(6.14667 -3.62499e-18 0)
(6.15422 -3.59518e-18 0)
(6.16174 -3.56338e-18 0)
(6.16923 -3.53383e-18 0)
(6.17668 -3.50771e-18 0)
(6.18411 -3.49318e-18 0)
(6.19151 -3.47763e-18 0)
(6.19888 -3.46267e-18 0)
(6.20622 -3.43497e-18 0)
(6.21353 -3.40499e-18 0)
(6.22082 -3.38149e-18 0)
(6.22807 -3.35257e-18 0)
(6.2353 -3.32298e-18 0)
(6.2425 -3.28216e-18 0)
(6.24967 -3.27516e-18 0)
(6.25682 -3.2786e-18 0)
(6.26394 -3.24862e-18 0)
(6.27103 -3.21993e-18 0)
(6.27809 -3.18267e-18 0)
(6.28513 -3.14815e-18 0)
(6.29215 -3.10978e-18 0)
(6.29914 -3.06491e-18 0)
(6.3061 -3.018e-18 0)
(6.31303 -2.9615e-18 0)
(6.31995 -2.91095e-18 0)
(6.32683 -2.86859e-18 0)
(6.3337 -2.84577e-18 0)
(6.34053 -2.83558e-18 0)
(6.34735 -2.82125e-18 0)
(6.35414 -2.80706e-18 0)
(6.3609 -2.78575e-18 0)
(6.36764 -2.7689e-18 0)
(6.37436 -2.76519e-18 0)
(6.38106 -2.76237e-18 0)
(6.38773 -2.74058e-18 0)
(6.39437 -2.71187e-18 0)
(6.401 -2.67563e-18 0)
(6.4076 -2.64274e-18 0)
(6.41418 -2.62123e-18 0)
(6.42074 -2.60809e-18 0)
(6.42727 -2.61625e-18 0)
(6.43378 -2.59118e-18 0)
(6.44027 -2.55371e-18 0)
(6.44674 -2.51384e-18 0)
(6.45319 -2.47811e-18 0)
(6.45961 -2.4686e-18 0)
(6.46602 -2.49036e-18 0)
(6.4724 -2.50047e-18 0)
(6.47876 -2.51047e-18 0)
(6.4851 -2.52849e-18 0)
(6.49142 -2.50841e-18 0)
(6.49771 -2.48788e-18 0)
(6.50399 -2.45849e-18 0)
(6.51024 -2.43047e-18 0)
(6.51648 -2.40226e-18 0)
(6.52269 -2.37239e-18 0)
(6.52889 -2.35074e-18 0)
(6.53506 -2.32844e-18 0)
(6.54122 -2.309e-18 0)
(6.54735 -2.27674e-18 0)
(6.55346 -2.23032e-18 0)
(6.55956 -2.17964e-18 0)
(6.56563 -2.1199e-18 0)
(6.57169 -2.06456e-18 0)
(6.57772 -2.04129e-18 0)
(6.58374 -2.00669e-18 0)
(6.58973 -1.93784e-18 0)
(6.59571 -1.87314e-18 0)
(6.60166 -1.82878e-18 0)
(6.6076 -1.80124e-18 0)
(6.61352 -1.75766e-18 0)
(6.61942 -1.68924e-18 0)
(6.6253 -1.62716e-18 0)
(6.63116 -1.59361e-18 0)
(6.63701 -1.57485e-18 0)
(6.64283 -1.54478e-18 0)
(6.64864 -1.46904e-18 0)
(6.65442 -1.3945e-18 0)
(6.66019 -1.36788e-18 0)
(6.66594 -1.35817e-18 0)
(6.67167 -1.37802e-18 0)
(6.67738 -1.37836e-18 0)
(6.68308 -1.34626e-18 0)
(6.68875 -1.33062e-18 0)
(6.69441 -1.3088e-18 0)
(6.70005 -1.29067e-18 0)
(6.70567 -1.2534e-18 0)
(6.71127 -1.19646e-18 0)
(6.71686 -1.17124e-18 0)
(6.72242 -1.17119e-18 0)
(6.72797 -1.17776e-18 0)
(6.7335 -1.18489e-18 0)
(6.73902 -1.15509e-18 0)
(6.74451 -1.11412e-18 0)
(6.74999 -1.1067e-18 0)
(6.75545 -1.10916e-18 0)
(6.76089 -1.1153e-18 0)
(6.76631 -1.08999e-18 0)
(6.77172 -1.05779e-18 0)
(6.7771 -1.02693e-18 0)
(6.78247 -9.95226e-19 0)
(6.78782 -9.63947e-19 0)
(6.79316 -9.44673e-19 0)
(6.79847 -9.60108e-19 0)
(6.80377 -9.39578e-19 0)
(6.80905 -9.07e-19 0)
(6.81432 -8.71956e-19 0)
(6.81956 -8.46174e-19 0)
(6.82479 -8.52358e-19 0)
(6.83 -8.52464e-19 0)
(6.83519 -8.37284e-19 0)
(6.84037 -8.55394e-19 0)
(6.84553 -8.73032e-19 0)
(6.85067 -8.56164e-19 0)
(6.85579 -8.49489e-19 0)
(6.86089 -8.43154e-19 0)
(6.86598 -8.07868e-19 0)
(6.87105 -7.64033e-19 0)
(6.8761 -7.49247e-19 0)
(6.88113 -7.39922e-19 0)
(6.88615 -7.26336e-19 0)
(6.89115 -7.37196e-19 0)
(6.89613 -7.24736e-19 0)
(6.90109 -7.03884e-19 0)
(6.90603 -7.26919e-19 0)
(6.91096 -7.28788e-19 0)
(6.91587 -7.16369e-19 0)
(6.92076 -7.12296e-19 0)
(6.92563 -7.0814e-19 0)
(6.93049 -7.04564e-19 0)
(6.93532 -7.01534e-19 0)
(6.94014 -6.9901e-19 0)
(6.94494 -6.96944e-19 0)
(6.94973 -6.95328e-19 0)
(6.95449 -6.941e-19 0)
(6.95924 -6.93245e-19 0)
(6.96397 -6.92697e-19 0)
(6.96868 -6.92392e-19 0)
(6.97337 -6.92314e-19 0)
(6.97805 -6.92407e-19 0)
(6.9827 -6.92615e-19 0)
(6.98734 -6.92937e-19 0)
(6.99196 -6.93332e-19 0)
(6.99656 -6.93762e-19 0)
(7.00114 -6.94219e-19 0)
(7.0057 -6.94681e-19 0)
(7.01025 -6.95129e-19 0)
(7.01478 -6.95551e-19 0)
(7.01928 -6.95938e-19 0)
(7.02377 -6.96287e-19 0)
(7.02824 -6.96597e-19 0)
(7.03269 -6.9687e-19 0)
(7.03712 -6.97108e-19 0)
(7.04154 -6.97318e-19 0)
(7.04593 -6.9748e-19 0)
(7.05031 -6.97624e-19 0)
(7.05466 -6.97732e-19 0)
(7.059 -6.97811e-19 0)
(7.06331 -6.97868e-19 0)
(7.06761 -6.9791e-19 0)
(7.07189 -6.97943e-19 0)
(7.07615 -6.97973e-19 0)
(7.08039 -6.98003e-19 0)
(7.0846 -6.9804e-19 0)
(7.0888 -6.98085e-19 0)
(7.09298 -6.98143e-19 0)
(7.09714 -6.98217e-19 0)
(7.10128 -6.98307e-19 0)
(7.1054 -6.98416e-19 0)
(7.1095 -6.98546e-19 0)
(7.11357 -6.98697e-19 0)
(7.11763 -6.9887e-19 0)
(7.12167 -6.99065e-19 0)
(7.12568 -6.99283e-19 0)
(7.12968 -6.99523e-19 0)
(7.13365 -6.99785e-19 0)
(7.13761 -7.00068e-19 0)
(7.14154 -7.00373e-19 0)
(7.14545 -7.00697e-19 0)
(7.14934 -7.01041e-19 0)
(7.15321 -7.01404e-19 0)
(7.15706 -7.01785e-19 0)
(7.16088 -7.02182e-19 0)
(7.16469 -7.02595e-19 0)
(7.16847 -7.03023e-19 0)
(7.17223 -7.03465e-19 0)
(7.17597 -7.03919e-19 0)
(7.17968 -7.04385e-19 0)
(7.18338 -7.04862e-19 0)
(7.18705 -7.05349e-19 0)
(7.1907 -7.05845e-19 0)
(7.19432 -7.06349e-19 0)
(7.19793 -7.06859e-19 0)
(7.20151 -7.07376e-19 0)
(7.20507 -7.07898e-19 0)
(7.2086 -7.08425e-19 0)
(7.21211 -7.08955e-19 0)
(7.2156 -7.09488e-19 0)
(7.21907 -7.10022e-19 0)
(7.22251 -7.10558e-19 0)
(7.22593 -7.11094e-19 0)
(7.22932 -7.1163e-19 0)
(7.23269 -7.12165e-19 0)
(7.23603 -7.12698e-19 0)
(7.23936 -7.13228e-19 0)
(7.24265 -7.13756e-19 0)
(7.24592 -7.14279e-19 0)
(7.24917 -7.14798e-19 0)
(7.2524 -7.15312e-19 0)
(7.25559 -7.15821e-19 0)
(7.25877 -7.16323e-19 0)
(7.26191 -7.16818e-19 0)
(7.26504 -7.17306e-19 0)
(7.26813 -7.17786e-19 0)
(7.27121 -7.18257e-19 0)
(7.27425 -7.18719e-19 0)
(7.27727 -7.19172e-19 0)
(7.28026 -7.19615e-19 0)
(7.28323 -7.20047e-19 0)
(7.28617 -7.20468e-19 0)
(7.28909 -7.20877e-19 0)
(7.29198 -7.21275e-19 0)
(7.29484 -7.2166e-19 0)
(7.29767 -7.22033e-19 0)
(7.30048 -7.22392e-19 0)
(7.30326 -7.22737e-19 0)
(7.30602 -7.23069e-19 0)
(7.30874 -7.23386e-19 0)
(7.31144 -7.23687e-19 0)
(7.31411 -7.23974e-19 0)
(7.31675 -7.24245e-19 0)
(7.31937 -7.24499e-19 0)
(7.32196 -7.24737e-19 0)
(7.32451 -7.24959e-19 0)
(7.32704 -7.25162e-19 0)
(7.32955 -7.25349e-19 0)
(7.33202 -7.25517e-19 0)
(7.33446 -7.25667e-19 0)
(7.33688 -7.25798e-19 0)
(7.33927 -7.25911e-19 0)
(7.34162 -7.26004e-19 0)
(7.34395 -7.26077e-19 0)
(7.34625 -7.26131e-19 0)
(7.34852 -7.26165e-19 0)
(7.35076 -7.26179e-19 0)
(7.35297 -7.26172e-19 0)
(7.35515 -7.26145e-19 0)
(7.3573 -7.26097e-19 0)
(7.35942 -7.26028e-19 0)
(7.36151 -7.25938e-19 0)
(7.36357 -7.25839e-19 0)
(7.3656 -7.25716e-19 0)
(7.3676 -7.25571e-19 0)
(7.36956 -7.25401e-19 0)
(7.3715 -7.2522e-19 0)
(7.37341 -7.25028e-19 0)
(7.37528 -7.24812e-19 0)
(7.37712 -7.24572e-19 0)
(7.37894 -7.24309e-19 0)
(7.38072 -7.24021e-19 0)
(7.38247 -7.23721e-19 0)
(7.38419 -7.23406e-19 0)
(7.38587 -7.23078e-19 0)
(7.38753 -7.22724e-19 0)
(7.38915 -7.22343e-19 0)
(7.39074 -7.21935e-19 0)
(7.3923 -7.21512e-19 0)
(7.39383 -7.21074e-19 0)
(7.39533 -7.2062e-19 0)
(7.39679 -7.20137e-19 0)
(7.39822 -7.19626e-19 0)
(7.39962 -7.19085e-19 0)
(7.40098 -7.18527e-19 0)
(7.40232 -7.17951e-19 0)
(7.40362 -7.17356e-19 0)
(7.40489 -7.16736e-19 0)
(7.40612 -7.1609e-19 0)
(7.40733 -7.1542e-19 0)
(7.4085 -7.14725e-19 0)
(7.40964 -7.14004e-19 0)
(7.41074 -7.13259e-19 0)
(7.41181 -7.12488e-19 0)
(7.41285 -7.11692e-19 0)
(7.41386 -7.1087e-19 0)
(7.41483 -7.10023e-19 0)
(7.41577 -7.09149e-19 0)
(7.41667 -7.08248e-19 0)
(7.41755 -7.07322e-19 0)
(7.41839 -7.06368e-19 0)
(7.41919 -7.05388e-19 0)
(7.41997 -7.04381e-19 0)
(7.42071 -7.03347e-19 0)
(7.42141 -7.02285e-19 0)
(7.42208 -7.01196e-19 0)
(7.42272 -7.0008e-19 0)
(7.42333 -6.98936e-19 0)
(7.4239 -6.97767e-19 0)
(7.42444 -6.96574e-19 0)
(7.42495 -6.95352e-19 0)
(7.42542 -6.94103e-19 0)
(7.42586 -6.92826e-19 0)
(7.42626 -6.9152e-19 0)
(7.42663 -6.9019e-19 0)
(7.42697 -6.88834e-19 0)
(7.42727 -6.87451e-19 0)
(7.42754 -6.86041e-19 0)
(7.42778 -6.84604e-19 0)
(7.42798 -6.83141e-19 0)
(7.42815 -6.81649e-19 0)
(7.42828 -6.80131e-19 0)
(7.42838 -6.78586e-19 0)
(7.42845 -6.77014e-19 0)
(7.42849 -6.75414e-19 0)
(7.42849 -6.73788e-19 0)
(7.42845 -6.72134e-19 0)
(7.42838 -6.70453e-19 0)
(7.42828 -6.68745e-19 0)
(7.42815 -6.6701e-19 0)
(7.42798 -6.65248e-19 0)
(7.42778 -6.63459e-19 0)
(7.42754 -6.61643e-19 0)
(7.42727 -6.598e-19 0)
(7.42697 -6.57931e-19 0)
(7.42663 -6.56036e-19 0)
(7.42626 -6.54112e-19 0)
(7.42586 -6.5216e-19 0)
(7.42542 -6.5018e-19 0)
(7.42495 -6.48175e-19 0)
(7.42444 -6.46145e-19 0)
(7.4239 -6.44089e-19 0)
(7.42333 -6.42008e-19 0)
(7.42272 -6.39899e-19 0)
(7.42208 -6.37761e-19 0)
(7.42141 -6.35596e-19 0)
(7.42071 -6.33403e-19 0)
(7.41997 -6.31182e-19 0)
(7.41919 -6.28933e-19 0)
(7.41839 -6.26655e-19 0)
(7.41755 -6.2435e-19 0)
(7.41667 -6.22015e-19 0)
(7.41577 -6.19653e-19 0)
(7.41483 -6.17262e-19 0)
(7.41386 -6.14842e-19 0)
(7.41285 -6.12394e-19 0)
(7.41181 -6.09916e-19 0)
(7.41074 -6.0741e-19 0)
(7.40964 -6.04874e-19 0)
(7.4085 -6.02309e-19 0)
(7.40733 -5.99714e-19 0)
(7.40612 -5.97089e-19 0)
(7.40489 -5.94433e-19 0)
(7.40362 -5.91747e-19 0)
(7.40232 -5.89029e-19 0)
(7.40098 -5.86288e-19 0)
(7.39962 -5.83521e-19 0)
(7.39822 -5.8073e-19 0)
(7.39679 -5.77912e-19 0)
(7.39533 -5.75068e-19 0)
(7.39383 -5.72198e-19 0)
(7.3923 -5.69299e-19 0)
(7.39074 -5.66372e-19 0)
(7.38915 -5.63415e-19 0)
(7.38753 -5.60429e-19 0)
(7.38587 -5.57411e-19 0)
(7.38419 -5.54362e-19 0)
(7.38247 -5.51279e-19 0)
(7.38072 -5.48161e-19 0)
(7.37894 -5.45009e-19 0)
(7.37712 -5.41819e-19 0)
(7.37528 -5.38591e-19 0)
(7.37341 -5.35324e-19 0)
(7.3715 -5.32015e-19 0)
(7.36956 -5.28663e-19 0)
(7.3676 -5.25267e-19 0)
(7.3656 -5.21824e-19 0)
(7.36357 -5.18332e-19 0)
(7.36151 -5.1479e-19 0)
(7.35942 -5.11194e-19 0)
(7.3573 -5.07543e-19 0)
(7.35515 -5.03834e-19 0)
(7.35297 -5.00064e-19 0)
(7.35076 -4.96244e-19 0)
(7.34852 -4.92373e-19 0)
(7.34625 -4.88436e-19 0)
(7.34395 -4.84432e-19 0)
(7.34162 -4.80358e-19 0)
(7.33927 -4.76226e-19 0)
(7.33688 -4.72032e-19 0)
(7.33446 -4.67775e-19 0)
(7.33202 -4.6345e-19 0)
(7.32955 -4.59057e-19 0)
(7.32704 -4.54592e-19 0)
(7.32451 -4.50053e-19 0)
(7.32196 -4.45439e-19 0)
(7.31937 -4.40747e-19 0)
(7.31675 -4.35975e-19 0)
(7.31411 -4.31122e-19 0)
(7.31144 -4.26186e-19 0)
(7.30874 -4.21167e-19 0)
(7.30602 -4.16063e-19 0)
(7.30326 -4.10875e-19 0)
(7.30048 -4.05603e-19 0)
(7.29767 -4.00248e-19 0)
(7.29484 -3.94811e-19 0)
(7.29198 -3.89296e-19 0)
(7.28909 -3.83705e-19 0)
(7.28617 -3.78042e-19 0)
(7.28323 -3.72315e-19 0)
(7.28026 -3.66529e-19 0)
(7.27727 -3.60692e-19 0)
(7.27425 -3.54815e-19 0)
(7.27121 -3.4891e-19 0)
(7.26813 -3.42961e-19 0)
(7.26504 -3.36981e-19 0)
(7.26191 -3.30982e-19 0)
(7.25877 -3.24976e-19 0)
(7.25559 -3.18976e-19 0)
(7.2524 -3.12997e-19 0)
(7.24917 -3.07052e-19 0)
(7.24592 -3.01128e-19 0)
(7.24265 -2.95233e-19 0)
(7.23936 -2.89377e-19 0)
(7.23603 -2.83562e-19 0)
(7.23269 -2.77789e-19 0)
(7.22932 -2.7205e-19 0)
(7.22593 -2.66333e-19 0)
(7.22251 -2.60618e-19 0)
(7.21907 -2.54873e-19 0)
(7.2156 -2.49057e-19 0)
(7.21211 -2.43141e-19 0)
(7.2086 -2.37054e-19 0)
(7.20507 -2.30736e-19 0)
(7.20151 -2.24112e-19 0)
(7.19793 -2.17086e-19 0)
(7.19432 -2.09547e-19 0)
(7.1907 -2.01391e-19 0)
(7.18705 -1.92471e-19 0)
(7.18338 -1.82644e-19 0)
(7.17968 -1.71754e-19 0)
(7.17597 -1.59651e-19 0)
(7.17223 -1.46147e-19 0)
(7.16847 -1.31067e-19 0)
(7.16469 -1.14224e-19 0)
(7.16088 -9.50405e-20 0)
(7.15706 -7.85207e-20 0)
(7.15321 -1.11342e-19 0)
(7.14934 -1.44165e-19 0)
(7.14545 -1.27803e-19 0)
(7.14154 -1.08918e-19 0)
(7.13761 -9.24933e-20 0)
(7.13365 -7.79488e-20 0)
(7.12968 -6.5124e-20 0)
(7.12568 -5.38154e-20 0)
(7.12167 -4.38585e-20 0)
(7.11763 -3.50772e-20 0)
(7.11357 -2.73123e-20 0)
(7.1095 -2.04213e-20 0)
(7.1054 -1.42795e-20 0)
(7.10128 -8.75485e-21 0)
(7.09714 -3.76023e-21 0)
(7.09298 7.99624e-22 0)
(7.0888 5.0006e-21 0)
(7.0846 8.92707e-21 0)
(7.08039 1.26212e-20 0)
(7.07615 1.61371e-20 0)
(7.07189 1.95167e-20 0)
(7.06761 2.27662e-20 0)
(7.06331 2.59072e-20 0)
(7.059 2.89538e-20 0)
(7.05466 3.19113e-20 0)
(7.05031 3.47783e-20 0)
(7.04593 3.75744e-20 0)
(7.04154 4.02915e-20 0)
(7.03712 4.29187e-20 0)
(7.03269 4.54436e-20 0)
(7.02824 4.78526e-20 0)
(7.02377 5.0132e-20 0)
(7.01928 5.22915e-20 0)
(7.01478 5.43158e-20 0)
(7.01025 5.61906e-20 0)
(7.0057 5.79025e-20 0)
(7.00114 5.94393e-20 0)
(6.99656 6.079e-20 0)
(6.99196 6.19449e-20 0)
(6.98734 6.2919e-20 0)
(6.9827 6.36781e-20 0)
(6.97805 6.42157e-20 0)
(6.97337 6.4523e-20 0)
(6.96868 6.45894e-20 0)
(6.96397 6.44524e-20 0)
(6.95924 6.41003e-20 0)
(6.95449 6.35271e-20 0)
(6.94973 6.27276e-20 0)
(6.94494 6.16973e-20 0)
(6.94014 6.04325e-20 0)
(6.93532 5.89305e-20 0)
(6.93049 5.71897e-20 0)
(6.92563 5.52097e-20 0)
(6.92076 5.2992e-20 0)
(6.91587 5.05397e-20 0)
(6.91096 4.78586e-20 0)
(6.90603 4.4958e-20 0)
(6.90109 4.18509e-20 0)
(6.89613 3.85562e-20 0)
(6.89114 3.50998e-20 0)
(6.88615 3.15164e-20 0)
(6.88113 2.78022e-20 0)
(6.8761 2.40121e-20 0)
(6.87105 2.01562e-20 0)
(6.86598 1.62941e-20 0)
(6.86089 1.23797e-20 0)
(6.85579 8.39023e-21 0)
(6.85067 4.19324e-21 0)
(6.84553 -4.98023e-22 0)
(6.84037 -6.25021e-21 0)
(6.83519 -1.3573e-20 0)
(6.83 -2.27588e-20 0)
(6.82479 -4.19208e-20 0)
(6.81956 -5.89199e-20 0)
(6.81432 -6.14477e-20 0)
(6.80905 -6.05013e-20 0)
(6.80377 -5.94003e-20 0)
(6.79847 -5.88723e-20 0)
(6.79316 -5.69315e-20 0)
(6.78782 -5.14655e-20 0)
(6.78247 -4.31433e-20 0)
(6.7771 -3.54575e-20 0)
(6.77172 -3.95421e-20 0)
(6.76631 -4.27423e-20 0)
(6.76089 -3.24566e-20 0)
(6.75545 -1.95952e-20 0)
(6.74999 -9.86613e-21 0)
(6.74451 -4.74816e-20 0)
(6.73902 -8.4005e-20 0)
(6.7335 -7.06278e-20 0)
(6.72797 -5.43222e-20 0)
(6.72242 -4.02882e-20 0)
(6.71686 -2.81126e-20 0)
(6.71127 -1.77472e-20 0)
(6.70567 -9.1229e-21 0)
(6.70005 -2.11083e-21 0)
(6.69441 3.422e-21 0)
(6.68875 7.60834e-21 0)
(6.68308 1.05783e-20 0)
(6.67738 1.24584e-20 0)
(6.67167 1.33722e-20 0)
(6.66594 1.34368e-20 0)
(6.66019 1.28142e-20 0)
(6.65442 1.16144e-20 0)
(6.64863 9.94635e-21 0)
(6.64283 7.91319e-21 0)
(6.63701 5.61085e-21 0)
(6.63116 3.06859e-21 0)
(6.6253 2.78168e-22 0)
(6.61942 -2.53061e-21 0)
(6.61352 -7.55912e-21 0)
(6.6076 -5.84664e-20 0)
(6.60166 -1.09435e-19 0)
(6.59571 -1.14639e-19 0)
(6.58973 -1.17705e-19 0)
(6.58374 -1.20853e-19 0)
(6.57772 -1.23925e-19 0)
(6.57169 -1.26963e-19 0)
(6.56563 -1.29936e-19 0)
(6.55956 -1.32804e-19 0)
(6.55346 -1.35531e-19 0)
(6.54735 -1.3804e-19 0)
(6.54122 -1.40268e-19 0)
(6.53506 -1.42206e-19 0)
(6.52889 -1.4381e-19 0)
(6.52269 -1.45045e-19 0)
(6.51648 -1.45885e-19 0)
(6.51024 -1.46311e-19 0)
(6.50399 -1.46308e-19 0)
(6.49771 -1.45868e-19 0)
(6.49141 -1.44987e-19 0)
(6.4851 -1.43667e-19 0)
(6.47876 -1.41912e-19 0)
(6.4724 -1.39732e-19 0)
(6.46602 -1.37138e-19 0)
(6.45961 -1.3414e-19 0)
(6.45319 -1.30754e-19 0)
(6.44674 -1.26992e-19 0)
(6.44027 -1.22868e-19 0)
(6.43378 -1.18399e-19 0)
(6.42727 -1.13559e-19 0)
(6.42074 -1.08367e-19 0)
(6.41418 -1.02846e-19 0)
(6.4076 -9.70176e-20 0)
(6.401 -9.09035e-20 0)
(6.39437 -8.45273e-20 0)
(6.38773 -7.79132e-20 0)
(6.38105 -7.10364e-20 0)
(6.37436 -6.39189e-20 0)
(6.36764 -5.65792e-20 0)
(6.3609 -4.90369e-20 0)
(6.35414 -4.13119e-20 0)
(6.34735 -3.34245e-20 0)
(6.34053 -2.53946e-20 0)
(6.3337 -1.72416e-20 0)
(6.32683 -8.98399e-21 0)
(6.31995 -6.39241e-22 0)
(6.31303 7.77633e-21 0)
(6.3061 1.62938e-20 0)
(6.29914 2.48952e-20 0)
(6.29215 3.35643e-20 0)
(6.28513 4.22865e-20 0)
(6.27809 5.10493e-20 0)
(6.27103 5.98428e-20 0)
(6.26394 6.86616e-20 0)
(6.25682 7.75587e-20 0)
(6.24967 8.65532e-20 0)
(6.2425 9.56899e-20 0)
(6.2353 1.05104e-19 0)
(6.22807 1.14935e-19 0)
(6.22082 1.25458e-19 0)
(6.21353 1.3701e-19 0)
(6.20622 1.50512e-19 0)
(6.19888 1.58735e-19 0)
(6.19151 1.69052e-19 0)
(6.18411 1.78383e-19 0)
(6.17668 1.83676e-19 0)
(6.16923 1.92377e-19 0)
(6.16174 1.97244e-19 0)
(6.15422 1.99147e-19 0)
(6.14667 1.98425e-19 0)
(6.13909 1.95344e-19 0)
(6.13148 1.90036e-19 0)
(6.12384 1.82626e-19 0)
(6.11617 1.7315e-19 0)
(6.10846 1.61671e-19 0)
(6.10073 1.48071e-19 0)
(6.09296 1.33794e-19 0)
(6.08515 1.20229e-19 0)
(6.07731 1.07293e-19 0)
(6.06944 9.49544e-20 0)
(6.06154 8.31773e-20 0)
(6.0536 7.19233e-20 0)
(6.04562 6.12029e-20 0)
(6.03761 5.09726e-20 0)
(6.02957 4.11884e-20 0)
(6.02149 3.18008e-20 0)
(6.01337 2.2754e-20 0)
(6.00521 1.40408e-20 0)
(5.99702 5.59883e-21 0)
(5.98879 -2.6413e-21 0)
(5.98052 -1.07559e-20 0)
(5.97221 -1.87798e-20 0)
(5.96387 -2.68133e-20 0)
(5.95548 -3.49717e-20 0)
(5.94705 -4.3396e-20 0)
(5.93859 -5.22063e-20 0)
(5.93008 -6.16214e-20 0)
(5.92153 -7.19272e-20 0)
(5.91294 -8.35048e-20 0)
(5.9043 -9.69266e-20 0)
(5.89562 -9.56487e-20 0)
(5.8869 -9.99106e-20 0)
(5.87814 -1.4186e-19 0)
(5.86933 -1.67847e-19 0)
(5.86047 -1.58036e-19 0)
(5.85157 -1.44605e-19 0)
(5.84262 -1.31041e-19 0)
(5.83363 -1.17937e-19 0)
(5.82458 -1.06314e-19 0)
(5.81549 -9.55131e-20 0)
(5.80635 -8.48378e-20 0)
(5.79716 -7.65579e-20 0)
(5.78792 -6.89463e-20 0)
(5.77863 -6.1874e-20 0)
(5.76928 -5.37599e-20 0)
(5.75989 -4.13563e-20 0)
(5.75044 -2.67194e-20 0)
(5.74093 -2.7293e-20 0)
(5.73137 -4.36128e-20 0)
(5.72176 -5.92547e-20 0)
(5.71208 -7.31477e-20 0)
(5.70236 -8.42232e-20 0)
(5.69257 -9.29442e-20 0)
(5.68272 -9.97463e-20 0)
(5.67281 -1.04846e-19 0)
(5.66285 -1.10996e-19 0)
(5.65282 -1.02178e-19 0)
(5.64273 -9.17192e-20 0)
(5.63257 -9.15164e-20 0)
(5.62235 -8.4635e-20 0)
(5.61206 -8.04952e-20 0)
(5.60171 -7.35108e-20 0)
(5.59129 -6.54958e-20 0)
(5.5808 -5.67711e-20 0)
(5.57024 -3.96735e-20 0)
(5.5596 -2.48001e-20 0)
(5.5489 -2.2259e-20 0)
(5.53812 -2.0873e-20 0)
(5.52727 -9.61203e-21 0)
(5.51634 2.18579e-21 0)
(5.50533 1.0751e-20 0)
(5.49425 1.79034e-20 0)
(5.48308 2.67139e-20 0)
(5.47183 3.87738e-20 0)
(5.4605 5.29031e-20 0)
(5.44909 6.36601e-20 0)
(5.43759 3.86053e-20 0)
(5.426 1.3215e-20 0)
(5.41432 2.35483e-20 0)
(5.40255 3.70117e-20 0)
(5.39069 4.95477e-20 0)
(5.37873 6.13732e-20 0)
(5.36668 7.25512e-20 0)
(5.35453 8.30818e-20 0)
(5.34228 9.29815e-20 0)
(5.32992 1.02286e-19 0)
(5.31747 1.10974e-19 0)
(5.3049 1.19102e-19 0)
(5.29223 1.2674e-19 0)
(5.27945 1.33886e-19 0)
(5.26656 1.40615e-19 0)
(5.25355 1.46995e-19 0)
(5.24042 1.53019e-19 0)
(5.22718 1.58745e-19 0)
(5.21381 1.64216e-19 0)
(5.20031 1.69464e-19 0)
(5.18669 1.7443e-19 0)
(5.17294 1.79103e-19 0)
(5.15905 1.83451e-19 0)
(5.14503 1.87492e-19 0)
(5.13087 1.9114e-19 0)
(5.11657 1.94283e-19 0)
(5.10212 1.96863e-19 0)
(5.08751 1.98811e-19 0)
(5.07276 2.0007e-19 0)
(5.05785 2.00703e-19 0)
(5.04278 2.00956e-19 0)
(5.02754 1.99988e-19 0)
(5.01214 1.90223e-19 0)
(4.99656 1.90803e-19 0)
(4.9808 1.91674e-19 0)
(4.96486 1.79074e-19 0)
(4.94874 1.71008e-19 0)
(4.93242 1.62999e-19 0)
(4.91591 1.55577e-19 0)
(4.89919 1.48921e-19 0)
(4.88227 1.4303e-19 0)
(4.86513 1.37954e-19 0)
(4.84777 1.33644e-19 0)
(4.83018 1.29967e-19 0)
(4.81236 1.26907e-19 0)
(4.7943 1.24481e-19 0)
(4.776 1.22651e-19 0)
(4.75744 1.21422e-19 0)
(4.73861 1.20624e-19 0)
(4.71952 1.20306e-19 0)
(4.70014 1.20518e-19 0)
(4.68048 1.21307e-19 0)
(4.66052 1.22729e-19 0)
(4.64025 1.24832e-19 0)
(4.61966 1.27419e-19 0)
(4.59874 1.3179e-19 0)
(4.57747 1.38316e-19 0)
(4.55586 1.4195e-19 0)
(4.53387 1.48299e-19 0)
(4.5115 1.54926e-19 0)
(4.48874 1.59204e-19 0)
(4.46557 1.67402e-19 0)
(4.44197 1.74487e-19 0)
(4.41792 1.78857e-19 0)
(4.39341 1.81747e-19 0)
(4.36842 1.84417e-19 0)
(4.34292 1.84047e-19 0)
(4.31689 1.81135e-19 0)
(4.29032 1.77616e-19 0)
(4.26316 1.74966e-19 0)
(4.23541 1.74074e-19 0)
(4.20702 1.72127e-19 0)
(4.17797 1.69096e-19 0)
(4.14822 1.64684e-19 0)
(4.11773 1.58272e-19 0)
(4.08646 1.49814e-19 0)
(4.05438 1.36642e-19 0)
(4.02144 1.36215e-19 0)
(3.98757 1.36388e-19 0)
(3.95274 1.23967e-19 0)
(3.91687 1.16152e-19 0)
(3.8799 1.08711e-19 0)
(3.84175 1.01806e-19 0)
(3.80235 9.53015e-20 0)
(3.7616 9.04769e-20 0)
(3.71939 8.87184e-20 0)
(3.67563 8.77839e-20 0)
(3.63018 6.47819e-20 0)
(3.58289 3.99546e-20 0)
(3.5336 3.73846e-20 0)
(3.48213 3.71102e-20 0)
(3.42826 3.47003e-20 0)
(3.37174 4.04674e-20 0)
(3.31229 4.70964e-20 0)
(3.24955 4.41377e-20 0)
(3.18314 4.32115e-20 0)
(3.11256 4.13374e-20 0)
(3.03722 3.70166e-20 0)
(2.9564 3.21884e-20 0)
(2.86918 2.8991e-20 0)
(2.77442 2.43121e-20 0)
(2.67059 9.78621e-21 0)
(2.5557 -3.90456e-21 0)
(2.42696 -4.76791e-21 0)
(2.28042 -2.00297e-21 0)
(2.11022 3.0486e-22 0)
(1.90713 1.30385e-21 0)
(1.65604 9.38367e-22 0)
(1.33186 -5.45806e-23 0)
(0.900724 6.04978e-22 0)
(0.356659 -1.03401e-21 0)
)
;

boundaryField
{
    top_wall
    {
        type            noSlip;
    }
    inlet
    {
        type            cyclic;
    }
    bot_wall
    {
        type            noSlip;
    }
    outlet
    {
        type            cyclic;
    }
    frontAndBack
    {
        type            empty;
    }
}


// ************************************************************************* //
