# Wall shear stress
# Time          	patch           	min             	max             
0.5             	top_wall	(-2.84918945e-01 -1.45875602e-21 0.00000000e+00)	(-2.84918945e-01 -1.45875602e-21 0.00000000e+00)
0.5             	bot_wall	(-2.84919434e-01 1.27283828e-18 0.00000000e+00)	(-2.84919434e-01 1.27283828e-18 0.00000000e+00)
1               	top_wall	(-2.61928580e-01 -7.87927401e-22 0.00000000e+00)	(-2.61928580e-01 -7.87927401e-22 0.00000000e+00)
1               	bot_wall	(-2.61928839e-01 2.21910932e-18 0.00000000e+00)	(-2.61928839e-01 2.21910932e-18 0.00000000e+00)
1.5             	top_wall	(-2.49349079e-01 2.27194034e-21 0.00000000e+00)	(-2.49349079e-01 2.27194034e-21 0.00000000e+00)
1.5             	bot_wall	(-2.49349278e-01 2.31479862e-18 0.00000000e+00)	(-2.49349278e-01 2.31479862e-18 0.00000000e+00)
2               	top_wall	(-2.40973388e-01 -1.29412235e-21 0.00000000e+00)	(-2.40973388e-01 -1.29412235e-21 0.00000000e+00)
2               	bot_wall	(-2.40973551e-01 1.91438239e-18 0.00000000e+00)	(-2.40973551e-01 1.91438239e-18 0.00000000e+00)
2.5             	top_wall	(-2.34784195e-01 -1.74858255e-21 0.00000000e+00)	(-2.34784195e-01 -1.74858255e-21 0.00000000e+00)
2.5             	bot_wall	(-2.34784329e-01 1.97608815e-18 0.00000000e+00)	(-2.34784329e-01 1.97608815e-18 0.00000000e+00)
3               	top_wall	(-2.29917490e-01 -4.71457828e-22 0.00000000e+00)	(-2.29917490e-01 -4.71457828e-22 0.00000000e+00)
3               	bot_wall	(-2.29917600e-01 2.58157075e-18 0.00000000e+00)	(-2.29917600e-01 2.58157075e-18 0.00000000e+00)
3.5             	top_wall	(-2.25904754e-01 -2.75559488e-21 0.00000000e+00)	(-2.25904754e-01 -2.75559488e-21 0.00000000e+00)
3.5             	bot_wall	(-2.25904844e-01 2.53427750e-18 0.00000000e+00)	(-2.25904844e-01 2.53427750e-18 0.00000000e+00)
4               	top_wall	(-2.22408986e-01 -1.04382986e-21 0.00000000e+00)	(-2.22408986e-01 -1.04382986e-21 0.00000000e+00)
4               	bot_wall	(-2.22409057e-01 2.64394734e-18 0.00000000e+00)	(-2.22409057e-01 2.64394734e-18 0.00000000e+00)
4.5             	top_wall	(-2.19387846e-01 1.19354410e-21 0.00000000e+00)	(-2.19387846e-01 1.19354410e-21 0.00000000e+00)
4.5             	bot_wall	(-2.19387902e-01 1.48567801e-18 0.00000000e+00)	(-2.19387902e-01 1.48567801e-18 0.00000000e+00)
5               	top_wall	(-2.16888117e-01 -1.76512163e-21 0.00000000e+00)	(-2.16888117e-01 -1.76512163e-21 0.00000000e+00)
5               	bot_wall	(-2.16888160e-01 1.69529966e-18 0.00000000e+00)	(-2.16888160e-01 1.69529966e-18 0.00000000e+00)
5.5             	top_wall	(-2.14783124e-01 2.51422577e-21 0.00000000e+00)	(-2.14783124e-01 2.51422577e-21 0.00000000e+00)
5.5             	bot_wall	(-2.14783156e-01 1.97185102e-18 0.00000000e+00)	(-2.14783156e-01 1.97185102e-18 0.00000000e+00)
6               	top_wall	(-2.12981114e-01 -2.17281633e-22 0.00000000e+00)	(-2.12981114e-01 -2.17281633e-22 0.00000000e+00)
6               	bot_wall	(-2.12981137e-01 2.34462163e-18 0.00000000e+00)	(-2.12981137e-01 2.34462163e-18 0.00000000e+00)
6.5             	top_wall	(-2.11425864e-01 -1.37400714e-21 0.00000000e+00)	(-2.11425864e-01 -1.37400714e-21 0.00000000e+00)
6.5             	bot_wall	(-2.11425880e-01 2.12415380e-18 0.00000000e+00)	(-2.11425880e-01 2.12415380e-18 0.00000000e+00)
7               	top_wall	(-2.10080059e-01 2.15639020e-21 0.00000000e+00)	(-2.10080059e-01 2.15639020e-21 0.00000000e+00)
7               	bot_wall	(-2.10080068e-01 2.12728815e-18 0.00000000e+00)	(-2.10080068e-01 2.12728815e-18 0.00000000e+00)
7.5             	top_wall	(-2.08918255e-01 -5.31745944e-22 0.00000000e+00)	(-2.08918255e-01 -5.31745944e-22 0.00000000e+00)
7.5             	bot_wall	(-2.08918259e-01 1.68038516e-18 0.00000000e+00)	(-2.08918259e-01 1.68038516e-18 0.00000000e+00)
8               	top_wall	(-2.07923373e-01 -3.83733567e-21 0.00000000e+00)	(-2.07923373e-01 -3.83733567e-21 0.00000000e+00)
8               	bot_wall	(-2.07923373e-01 2.05940916e-18 0.00000000e+00)	(-2.07923373e-01 2.05940916e-18 0.00000000e+00)
8.5             	top_wall	(-2.07084665e-01 -2.13879111e-22 0.00000000e+00)	(-2.07084665e-01 -2.13879111e-22 0.00000000e+00)
8.5             	bot_wall	(-2.07084661e-01 1.90904777e-18 0.00000000e+00)	(-2.07084661e-01 1.90904777e-18 0.00000000e+00)
9               	top_wall	(-2.06396911e-01 -6.73631239e-22 0.00000000e+00)	(-2.06396911e-01 -6.73631239e-22 0.00000000e+00)
9               	bot_wall	(-2.06396905e-01 2.10242950e-18 0.00000000e+00)	(-2.06396905e-01 2.10242950e-18 0.00000000e+00)
9.5             	top_wall	(-2.05859879e-01 1.35077781e-21 0.00000000e+00)	(-2.05859879e-01 1.35077781e-21 0.00000000e+00)
9.5             	bot_wall	(-2.05859871e-01 2.38034713e-18 0.00000000e+00)	(-2.05859871e-01 2.38034713e-18 0.00000000e+00)
10              	top_wall	(-2.05475669e-01 2.49285493e-21 0.00000000e+00)	(-2.05475669e-01 2.49285493e-21 0.00000000e+00)
10              	bot_wall	(-2.05475660e-01 2.26485548e-18 0.00000000e+00)	(-2.05475660e-01 2.26485548e-18 0.00000000e+00)
10.5            	top_wall	(-2.05242808e-01 9.38789942e-23 0.00000000e+00)	(-2.05242808e-01 9.38789942e-23 0.00000000e+00)
10.5            	bot_wall	(-2.05242798e-01 1.43481374e-18 0.00000000e+00)	(-2.05242798e-01 1.43481374e-18 0.00000000e+00)
11              	top_wall	(-2.05151448e-01 -5.25843426e-22 0.00000000e+00)	(-2.05151448e-01 -5.25843426e-22 0.00000000e+00)
11              	bot_wall	(-2.05151438e-01 1.68933516e-18 0.00000000e+00)	(-2.05151438e-01 1.68933516e-18 0.00000000e+00)
11.5            	top_wall	(-2.05184977e-01 -1.64478132e-21 0.00000000e+00)	(-2.05184977e-01 -1.64478132e-21 0.00000000e+00)
11.5            	bot_wall	(-2.05184966e-01 2.18204874e-18 0.00000000e+00)	(-2.05184966e-01 2.18204874e-18 0.00000000e+00)
12              	top_wall	(-2.05325406e-01 -2.26601472e-21 0.00000000e+00)	(-2.05325406e-01 -2.26601472e-21 0.00000000e+00)
12              	bot_wall	(-2.05325395e-01 1.76844521e-18 0.00000000e+00)	(-2.05325395e-01 1.76844521e-18 0.00000000e+00)
12.5            	top_wall	(-2.05556958e-01 2.69494969e-21 0.00000000e+00)	(-2.05556958e-01 2.69494969e-21 0.00000000e+00)
12.5            	bot_wall	(-2.05556947e-01 2.06676251e-18 0.00000000e+00)	(-2.05556947e-01 2.06676251e-18 0.00000000e+00)
13              	top_wall	(-2.05866797e-01 -1.58722947e-21 0.00000000e+00)	(-2.05866797e-01 -1.58722947e-21 0.00000000e+00)
13              	bot_wall	(-2.05866788e-01 2.38422511e-18 0.00000000e+00)	(-2.05866788e-01 2.38422511e-18 0.00000000e+00)
13.5            	top_wall	(-2.06244427e-01 6.84972383e-22 0.00000000e+00)	(-2.06244427e-01 6.84972383e-22 0.00000000e+00)
13.5            	bot_wall	(-2.06244418e-01 2.15381146e-18 0.00000000e+00)	(-2.06244418e-01 2.15381146e-18 0.00000000e+00)
14              	top_wall	(-2.06680888e-01 6.95736814e-22 0.00000000e+00)	(-2.06680888e-01 6.95736814e-22 0.00000000e+00)
14              	bot_wall	(-2.06680880e-01 2.34630428e-18 0.00000000e+00)	(-2.06680880e-01 2.34630428e-18 0.00000000e+00)
14.5            	top_wall	(-2.07168182e-01 -4.83331070e-22 0.00000000e+00)	(-2.07168182e-01 -4.83331070e-22 0.00000000e+00)
14.5            	bot_wall	(-2.07168174e-01 2.74381355e-18 0.00000000e+00)	(-2.07168174e-01 2.74381355e-18 0.00000000e+00)
15              	top_wall	(-2.07698658e-01 2.01807993e-21 0.00000000e+00)	(-2.07698658e-01 2.01807993e-21 0.00000000e+00)
15              	bot_wall	(-2.07698651e-01 2.57263839e-18 0.00000000e+00)	(-2.07698651e-01 2.57263839e-18 0.00000000e+00)
15.5            	top_wall	(-2.08264884e-01 -8.84530072e-22 0.00000000e+00)	(-2.08264884e-01 -8.84530072e-22 0.00000000e+00)
15.5            	bot_wall	(-2.08264878e-01 2.71968719e-18 0.00000000e+00)	(-2.08264878e-01 2.71968719e-18 0.00000000e+00)
16              	top_wall	(-2.08859564e-01 8.64423488e-23 0.00000000e+00)	(-2.08859564e-01 8.64423488e-23 0.00000000e+00)
16              	bot_wall	(-2.08859559e-01 1.52276846e-18 0.00000000e+00)	(-2.08859559e-01 1.52276846e-18 0.00000000e+00)
16.5            	top_wall	(-2.09475588e-01 1.32782126e-21 0.00000000e+00)	(-2.09475588e-01 1.32782126e-21 0.00000000e+00)
16.5            	bot_wall	(-2.09475584e-01 1.84349998e-18 0.00000000e+00)	(-2.09475584e-01 1.84349998e-18 0.00000000e+00)
17              	top_wall	(-2.10106159e-01 2.79712037e-22 0.00000000e+00)	(-2.10106159e-01 2.79712037e-22 0.00000000e+00)
17              	bot_wall	(-2.10106156e-01 1.96099206e-18 0.00000000e+00)	(-2.10106156e-01 1.96099206e-18 0.00000000e+00)
17.5            	top_wall	(-2.10744829e-01 -3.52271971e-21 0.00000000e+00)	(-2.10744829e-01 -3.52271971e-21 0.00000000e+00)
17.5            	bot_wall	(-2.10744826e-01 1.78695404e-18 0.00000000e+00)	(-2.10744826e-01 1.78695404e-18 0.00000000e+00)
18              	top_wall	(-2.11385676e-01 -4.42078990e-22 0.00000000e+00)	(-2.11385676e-01 -4.42078990e-22 0.00000000e+00)
18              	bot_wall	(-2.11385674e-01 2.27343078e-18 0.00000000e+00)	(-2.11385674e-01 2.27343078e-18 0.00000000e+00)
18.5            	top_wall	(-2.12023383e-01 -5.13709325e-22 0.00000000e+00)	(-2.12023383e-01 -5.13709325e-22 0.00000000e+00)
18.5            	bot_wall	(-2.12023382e-01 2.28796536e-18 0.00000000e+00)	(-2.12023382e-01 2.28796536e-18 0.00000000e+00)
19              	top_wall	(-2.12653256e-01 -7.32735523e-22 0.00000000e+00)	(-2.12653256e-01 -7.32735523e-22 0.00000000e+00)
19              	bot_wall	(-2.12653256e-01 1.77832341e-18 0.00000000e+00)	(-2.12653256e-01 1.77832341e-18 0.00000000e+00)
19.5            	top_wall	(-2.13271244e-01 3.65618636e-22 0.00000000e+00)	(-2.13271244e-01 3.65618636e-22 0.00000000e+00)
19.5            	bot_wall	(-2.13271243e-01 2.03440029e-18 0.00000000e+00)	(-2.13271243e-01 2.03440029e-18 0.00000000e+00)
20              	top_wall	(-2.13873953e-01 1.33989934e-21 0.00000000e+00)	(-2.13873953e-01 1.33989934e-21 0.00000000e+00)
20              	bot_wall	(-2.13873953e-01 2.22659688e-18 0.00000000e+00)	(-2.13873953e-01 2.22659688e-18 0.00000000e+00)
20.5            	top_wall	(-2.14458608e-01 9.83657472e-22 0.00000000e+00)	(-2.14458608e-01 9.83657472e-22 0.00000000e+00)
20.5            	bot_wall	(-2.14458608e-01 1.84853498e-18 0.00000000e+00)	(-2.14458608e-01 1.84853498e-18 0.00000000e+00)
21              	top_wall	(-2.15023008e-01 1.95816732e-22 0.00000000e+00)	(-2.15023008e-01 1.95816732e-22 0.00000000e+00)
21              	bot_wall	(-2.15023009e-01 2.19883907e-18 0.00000000e+00)	(-2.15023009e-01 2.19883907e-18 0.00000000e+00)
21.5            	top_wall	(-2.15565472e-01 -1.35568269e-21 0.00000000e+00)	(-2.15565472e-01 -1.35568269e-21 0.00000000e+00)
21.5            	bot_wall	(-2.15565473e-01 1.88212292e-18 0.00000000e+00)	(-2.15565473e-01 1.88212292e-18 0.00000000e+00)
22              	top_wall	(-2.16084775e-01 -6.49810454e-23 0.00000000e+00)	(-2.16084775e-01 -6.49810454e-23 0.00000000e+00)
22              	bot_wall	(-2.16084776e-01 2.29578022e-18 0.00000000e+00)	(-2.16084776e-01 2.29578022e-18 0.00000000e+00)
