/*--------------------------------*- C++ -*----------------------------------*\
| =========                 |                                                 |
| \\      /  F ield         | OpenFOAM: The Open Source CFD Toolbox           |
|  \\    /   O peration     | Version:  2312                                  |
|   \\  /    A nd           | Website:  www.openfoam.com                      |
|    \\/     M anipulation  |                                                 |
\*---------------------------------------------------------------------------*/
FoamFile
{
    version     2.0;
    format      ascii;
    arch        "LSB;label=32;scalar=64";
    class       volVectorField;
    location    "150";
    object      U;
}
// * * * * * * * * * * * * * * * * * * * * * * * * * * * * * * * * * * * * * //

dimensions      [0 1 -1 0 0 0 0];

internalField   nonuniform List<vector> 
1000
(
(0.0510018 -4.83412e-17 0)
(0.152801 -1.08084e-16 0)
(0.254397 -1.04742e-16 0)
(0.355789 -9.98433e-17 0)
(0.456976 -9.8465e-17 0)
(0.55796 -9.86955e-17 0)
(0.658739 -9.88247e-17 0)
(0.759315 -9.87709e-17 0)
(0.859687 -9.86138e-17 0)
(0.959854 -9.84736e-17 0)
(1.05982 -9.86633e-17 0)
(1.15958 -9.88886e-17 0)
(1.25913 -9.89019e-17 0)
(1.35848 -9.90197e-17 0)
(1.45763 -9.92734e-17 0)
(1.55658 -9.9435e-17 0)
(1.65531 -9.9521e-17 0)
(1.75385 -9.95424e-17 0)
(1.85218 -9.95596e-17 0)
(1.95031 -9.95726e-17 0)
(2.04823 -9.95815e-17 0)
(2.14595 -9.95866e-17 0)
(2.24347 -9.95883e-17 0)
(2.34078 -9.95868e-17 0)
(2.43789 -9.95825e-17 0)
(2.53479 -9.95755e-17 0)
(2.63149 -9.95661e-17 0)
(2.72798 -9.95543e-17 0)
(2.82427 -9.95402e-17 0)
(2.92036 -9.95238e-17 0)
(3.01625 -9.95052e-17 0)
(3.11192 -9.94842e-17 0)
(3.2074 -9.94608e-17 0)
(3.30267 -9.94349e-17 0)
(3.39774 -9.94064e-17 0)
(3.4926 -9.93753e-17 0)
(3.58726 -9.93415e-17 0)
(3.68172 -9.93049e-17 0)
(3.77597 -9.92654e-17 0)
(3.87001 -9.92229e-17 0)
(3.96386 -9.91774e-17 0)
(4.0575 -9.91288e-17 0)
(4.15093 -9.9077e-17 0)
(4.24416 -9.90221e-17 0)
(4.33719 -9.89639e-17 0)
(4.43001 -9.89025e-17 0)
(4.52263 -9.88378e-17 0)
(4.61505 -9.87697e-17 0)
(4.70726 -9.86984e-17 0)
(4.79926 -9.86237e-17 0)
(4.89107 -9.85456e-17 0)
(4.98267 -9.84643e-17 0)
(5.07406 -9.83796e-17 0)
(5.16525 -9.82916e-17 0)
(5.25624 -9.82003e-17 0)
(5.34702 -9.81057e-17 0)
(5.4376 -9.80078e-17 0)
(5.52797 -9.79068e-17 0)
(5.61815 -9.78026e-17 0)
(5.70811 -9.76952e-17 0)
(5.79788 -9.75847e-17 0)
(5.88743 -9.74711e-17 0)
(5.97679 -9.73546e-17 0)
(6.06594 -9.7235e-17 0)
(6.15489 -9.71125e-17 0)
(6.24363 -9.69872e-17 0)
(6.33217 -9.6859e-17 0)
(6.4205 -9.67281e-17 0)
(6.50863 -9.65944e-17 0)
(6.59656 -9.64582e-17 0)
(6.68428 -9.63193e-17 0)
(6.7718 -9.61779e-17 0)
(6.85911 -9.60341e-17 0)
(6.94622 -9.58878e-17 0)
(7.03313 -9.57392e-17 0)
(7.11983 -9.55884e-17 0)
(7.20633 -9.54354e-17 0)
(7.29263 -9.52802e-17 0)
(7.37872 -9.51229e-17 0)
(7.4646 -9.49637e-17 0)
(7.55028 -9.48025e-17 0)
(7.63576 -9.46395e-17 0)
(7.72104 -9.44746e-17 0)
(7.80611 -9.4308e-17 0)
(7.89097 -9.41397e-17 0)
(7.97564 -9.39697e-17 0)
(8.06009 -9.37981e-17 0)
(8.14435 -9.3625e-17 0)
(8.2284 -9.34504e-17 0)
(8.31224 -9.32743e-17 0)
(8.39589 -9.30968e-17 0)
(8.47932 -9.29178e-17 0)
(8.56256 -9.27374e-17 0)
(8.64559 -9.25556e-17 0)
(8.72841 -9.23723e-17 0)
(8.81104 -9.21876e-17 0)
(8.89345 -9.20015e-17 0)
(8.97567 -9.18139e-17 0)
(9.05768 -9.16247e-17 0)
(9.13948 -9.1434e-17 0)
(9.22108 -9.12417e-17 0)
(9.30248 -9.10477e-17 0)
(9.38368 -9.08521e-17 0)
(9.46467 -9.06547e-17 0)
(9.54545 -9.04556e-17 0)
(9.62603 -9.02548e-17 0)
(9.70641 -9.00522e-17 0)
(9.78658 -8.98478e-17 0)
(9.86655 -8.96418e-17 0)
(9.94632 -8.94342e-17 0)
(10.0259 -8.92249e-17 0)
(10.1052 -8.90142e-17 0)
(10.1844 -8.88021e-17 0)
(10.2633 -8.85885e-17 0)
(10.3421 -8.83735e-17 0)
(10.4206 -8.81568e-17 0)
(10.499 -8.79382e-17 0)
(10.5771 -8.77172e-17 0)
(10.655 -8.74928e-17 0)
(10.7328 -8.72638e-17 0)
(10.8103 -8.70283e-17 0)
(10.8876 -8.67839e-17 0)
(10.9647 -8.6527e-17 0)
(11.0416 -8.62532e-17 0)
(11.1183 -8.59568e-17 0)
(11.1948 -8.56304e-17 0)
(11.2711 -8.52652e-17 0)
(11.3472 -8.48713e-17 0)
(11.4231 -8.44387e-17 0)
(11.4988 -8.39588e-17 0)
(11.5743 -8.34219e-17 0)
(11.6495 -8.28181e-17 0)
(11.7246 -8.21379e-17 0)
(11.7995 -8.13957e-17 0)
(11.8741 -8.0589e-17 0)
(11.9486 -7.97234e-17 0)
(12.0229 -7.8816e-17 0)
(12.0969 -7.78989e-17 0)
(12.1708 -7.7047e-17 0)
(12.2444 -7.59387e-17 0)
(12.3179 -7.60472e-17 0)
(12.3911 -7.6129e-17 0)
(12.4641 -7.49943e-17 0)
(12.5369 -7.41102e-17 0)
(12.6096 -7.31515e-17 0)
(12.682 -7.21922e-17 0)
(12.7542 -7.12637e-17 0)
(12.8262 -7.03826e-17 0)
(12.898 -6.95539e-17 0)
(12.9696 -6.8796e-17 0)
(13.041 -6.81017e-17 0)
(13.1122 -6.74614e-17 0)
(13.1832 -6.68653e-17 0)
(13.254 -6.63036e-17 0)
(13.3246 -6.57651e-17 0)
(13.395 -6.52583e-17 0)
(13.4652 -6.47723e-17 0)
(13.5351 -6.4298e-17 0)
(13.6049 -6.38276e-17 0)
(13.6745 -6.33542e-17 0)
(13.7438 -6.28716e-17 0)
(13.813 -6.23735e-17 0)
(13.8819 -6.1853e-17 0)
(13.9507 -6.13018e-17 0)
(14.0192 -6.07084e-17 0)
(14.0876 -6.00566e-17 0)
(14.1557 -5.93225e-17 0)
(14.2236 -5.84701e-17 0)
(14.2913 -5.7445e-17 0)
(14.3589 -5.61229e-17 0)
(14.4262 -5.51416e-17 0)
(14.4933 -5.73435e-17 0)
(14.5602 -5.95624e-17 0)
(14.6269 -5.86012e-17 0)
(14.6934 -5.73035e-17 0)
(14.7597 -5.6311e-17 0)
(14.8258 -5.54999e-17 0)
(14.8917 -5.48163e-17 0)
(14.9574 -5.42254e-17 0)
(15.0229 -5.37046e-17 0)
(15.0882 -5.32398e-17 0)
(15.1532 -5.28228e-17 0)
(15.2181 -5.24495e-17 0)
(15.2828 -5.21189e-17 0)
(15.3472 -5.18327e-17 0)
(15.4115 -5.1574e-17 0)
(15.4756 -5.13462e-17 0)
(15.5394 -5.11519e-17 0)
(15.6031 -5.09922e-17 0)
(15.6665 -5.08697e-17 0)
(15.7297 -5.07877e-17 0)
(15.7928 -5.07502e-17 0)
(15.8556 -5.07612e-17 0)
(15.9182 -5.08252e-17 0)
(15.9806 -5.09454e-17 0)
(16.0429 -5.11232e-17 0)
(16.1049 -5.13336e-17 0)
(16.1667 -5.15601e-17 0)
(16.2283 -5.17428e-17 0)
(16.2897 -5.17817e-17 0)
(16.3509 -5.15101e-17 0)
(16.4119 -5.07764e-17 0)
(16.4727 -5.02017e-17 0)
(16.5333 -5.30485e-17 0)
(16.5937 -5.59154e-17 0)
(16.6538 -5.5373e-17 0)
(16.7138 -5.46685e-17 0)
(16.7736 -5.44262e-17 0)
(16.8331 -5.45123e-17 0)
(16.8925 -5.47575e-17 0)
(16.9517 -5.50626e-17 0)
(17.0106 -5.53689e-17 0)
(17.0694 -5.56402e-17 0)
(17.1279 -5.58707e-17 0)
(17.1863 -5.60593e-17 0)
(17.2444 -5.62089e-17 0)
(17.3023 -5.63251e-17 0)
(17.3601 -5.6415e-17 0)
(17.4176 -5.64665e-17 0)
(17.4749 -5.64865e-17 0)
(17.532 -5.6481e-17 0)
(17.5889 -5.64546e-17 0)
(17.6456 -5.64109e-17 0)
(17.7022 -5.63529e-17 0)
(17.7585 -5.62828e-17 0)
(17.8145 -5.62026e-17 0)
(17.8704 -5.61136e-17 0)
(17.9261 -5.6017e-17 0)
(17.9816 -5.59139e-17 0)
(18.0369 -5.5805e-17 0)
(18.092 -5.56911e-17 0)
(18.1469 -5.55729e-17 0)
(18.2015 -5.54509e-17 0)
(18.256 -5.53258e-17 0)
(18.3102 -5.5198e-17 0)
(18.3643 -5.50681e-17 0)
(18.4182 -5.49364e-17 0)
(18.4718 -5.48036e-17 0)
(18.5253 -5.46699e-17 0)
(18.5785 -5.45357e-17 0)
(18.6315 -5.44014e-17 0)
(18.6844 -5.42673e-17 0)
(18.737 -5.41335e-17 0)
(18.7894 -5.40005e-17 0)
(18.8416 -5.38682e-17 0)
(18.8937 -5.37369e-17 0)
(18.9455 -5.36067e-17 0)
(18.9971 -5.34776e-17 0)
(19.0485 -5.33498e-17 0)
(19.0997 -5.32231e-17 0)
(19.1507 -5.30978e-17 0)
(19.2015 -5.29736e-17 0)
(19.2521 -5.28506e-17 0)
(19.3024 -5.27287e-17 0)
(19.3526 -5.26079e-17 0)
(19.4026 -5.2488e-17 0)
(19.4524 -5.2369e-17 0)
(19.5019 -5.22508e-17 0)
(19.5513 -5.21333e-17 0)
(19.6005 -5.20163e-17 0)
(19.6494 -5.18999e-17 0)
(19.6982 -5.17838e-17 0)
(19.7467 -5.16679e-17 0)
(19.7951 -5.15523e-17 0)
(19.8432 -5.14367e-17 0)
(19.8911 -5.13211e-17 0)
(19.9389 -5.12053e-17 0)
(19.9864 -5.10894e-17 0)
(20.0337 -5.09732e-17 0)
(20.0809 -5.08566e-17 0)
(20.1278 -5.07396e-17 0)
(20.1745 -5.06221e-17 0)
(20.221 -5.05041e-17 0)
(20.2673 -5.03854e-17 0)
(20.3134 -5.02662e-17 0)
(20.3593 -5.01462e-17 0)
(20.405 -5.00255e-17 0)
(20.4505 -4.99041e-17 0)
(20.4958 -4.97819e-17 0)
(20.5408 -4.96589e-17 0)
(20.5857 -4.9535e-17 0)
(20.6304 -4.94104e-17 0)
(20.6749 -4.92849e-17 0)
(20.7191 -4.91586e-17 0)
(20.7632 -4.90314e-17 0)
(20.807 -4.89033e-17 0)
(20.8507 -4.87745e-17 0)
(20.8941 -4.86448e-17 0)
(20.9374 -4.85142e-17 0)
(20.9804 -4.83829e-17 0)
(21.0233 -4.82507e-17 0)
(21.0659 -4.81177e-17 0)
(21.1083 -4.7984e-17 0)
(21.1505 -4.78495e-17 0)
(21.1926 -4.77143e-17 0)
(21.2344 -4.75783e-17 0)
(21.276 -4.74416e-17 0)
(21.3174 -4.73043e-17 0)
(21.3586 -4.71663e-17 0)
(21.3996 -4.70276e-17 0)
(21.4404 -4.68883e-17 0)
(21.481 -4.67485e-17 0)
(21.5214 -4.6608e-17 0)
(21.5616 -4.6467e-17 0)
(21.6015 -4.63255e-17 0)
(21.6413 -4.61834e-17 0)
(21.6809 -4.60409e-17 0)
(21.7202 -4.58979e-17 0)
(21.7594 -4.57544e-17 0)
(21.7984 -4.56106e-17 0)
(21.8371 -4.54663e-17 0)
(21.8757 -4.53217e-17 0)
(21.914 -4.51767e-17 0)
(21.9522 -4.50313e-17 0)
(21.9901 -4.48857e-17 0)
(22.0278 -4.47398e-17 0)
(22.0654 -4.45936e-17 0)
(22.1027 -4.44471e-17 0)
(22.1398 -4.43005e-17 0)
(22.1767 -4.41536e-17 0)
(22.2135 -4.40065e-17 0)
(22.25 -4.38592e-17 0)
(22.2863 -4.37118e-17 0)
(22.3224 -4.35643e-17 0)
(22.3583 -4.34166e-17 0)
(22.394 -4.32689e-17 0)
(22.4295 -4.3121e-17 0)
(22.4648 -4.29731e-17 0)
(22.4998 -4.28252e-17 0)
(22.5347 -4.26772e-17 0)
(22.5694 -4.25292e-17 0)
(22.6039 -4.23811e-17 0)
(22.6381 -4.22331e-17 0)
(22.6722 -4.20852e-17 0)
(22.7061 -4.19372e-17 0)
(22.7397 -4.17893e-17 0)
(22.7732 -4.16415e-17 0)
(22.8064 -4.14938e-17 0)
(22.8395 -4.13461e-17 0)
(22.8723 -4.11985e-17 0)
(22.9049 -4.10511e-17 0)
(22.9374 -4.09038e-17 0)
(22.9696 -4.07566e-17 0)
(23.0016 -4.06096e-17 0)
(23.0334 -4.04628e-17 0)
(23.065 -4.03161e-17 0)
(23.0965 -4.01696e-17 0)
(23.1277 -4.00233e-17 0)
(23.1587 -3.98771e-17 0)
(23.1895 -3.97312e-17 0)
(23.2201 -3.95855e-17 0)
(23.2505 -3.944e-17 0)
(23.2806 -3.92948e-17 0)
(23.3106 -3.91498e-17 0)
(23.3404 -3.9005e-17 0)
(23.37 -3.88605e-17 0)
(23.3994 -3.87163e-17 0)
(23.4285 -3.85723e-17 0)
(23.4575 -3.84286e-17 0)
(23.4862 -3.82852e-17 0)
(23.5148 -3.81421e-17 0)
(23.5431 -3.79992e-17 0)
(23.5713 -3.78567e-17 0)
(23.5992 -3.77144e-17 0)
(23.627 -3.75725e-17 0)
(23.6545 -3.74309e-17 0)
(23.6818 -3.72895e-17 0)
(23.709 -3.71485e-17 0)
(23.7359 -3.70079e-17 0)
(23.7626 -3.68675e-17 0)
(23.7891 -3.67275e-17 0)
(23.8154 -3.65878e-17 0)
(23.8416 -3.64485e-17 0)
(23.8675 -3.63094e-17 0)
(23.8932 -3.61708e-17 0)
(23.9187 -3.60325e-17 0)
(23.9439 -3.58945e-17 0)
(23.969 -3.57569e-17 0)
(23.9939 -3.56196e-17 0)
(24.0186 -3.54827e-17 0)
(24.0431 -3.53461e-17 0)
(24.0673 -3.52099e-17 0)
(24.0914 -3.50741e-17 0)
(24.1153 -3.49386e-17 0)
(24.1389 -3.48035e-17 0)
(24.1624 -3.46687e-17 0)
(24.1856 -3.45343e-17 0)
(24.2087 -3.44003e-17 0)
(24.2315 -3.42666e-17 0)
(24.2542 -3.41334e-17 0)
(24.2766 -3.40004e-17 0)
(24.2988 -3.38679e-17 0)
(24.3209 -3.37357e-17 0)
(24.3427 -3.36039e-17 0)
(24.3643 -3.34725e-17 0)
(24.3857 -3.33414e-17 0)
(24.4069 -3.32108e-17 0)
(24.4279 -3.30805e-17 0)
(24.4488 -3.29505e-17 0)
(24.4694 -3.2821e-17 0)
(24.4898 -3.26918e-17 0)
(24.5099 -3.25629e-17 0)
(24.5299 -3.24345e-17 0)
(24.5497 -3.23064e-17 0)
(24.5693 -3.21787e-17 0)
(24.5887 -3.20514e-17 0)
(24.6078 -3.19245e-17 0)
(24.6268 -3.17979e-17 0)
(24.6456 -3.16717e-17 0)
(24.6641 -3.15459e-17 0)
(24.6825 -3.14204e-17 0)
(24.7006 -3.12953e-17 0)
(24.7186 -3.11706e-17 0)
(24.7363 -3.10463e-17 0)
(24.7539 -3.09223e-17 0)
(24.7712 -3.07987e-17 0)
(24.7883 -3.06755e-17 0)
(24.8053 -3.05526e-17 0)
(24.822 -3.04301e-17 0)
(24.8385 -3.0308e-17 0)
(24.8548 -3.01862e-17 0)
(24.871 -3.00648e-17 0)
(24.8869 -2.99438e-17 0)
(24.9026 -2.98231e-17 0)
(24.9181 -2.97028e-17 0)
(24.9334 -2.95829e-17 0)
(24.9485 -2.94633e-17 0)
(24.9633 -2.9344e-17 0)
(24.978 -2.92252e-17 0)
(24.9925 -2.91067e-17 0)
(25.0068 -2.89885e-17 0)
(25.0209 -2.88707e-17 0)
(25.0347 -2.87533e-17 0)
(25.0484 -2.86362e-17 0)
(25.0619 -2.85195e-17 0)
(25.0751 -2.84032e-17 0)
(25.0882 -2.82871e-17 0)
(25.101 -2.81715e-17 0)
(25.1137 -2.80562e-17 0)
(25.1261 -2.79412e-17 0)
(25.1383 -2.78266e-17 0)
(25.1504 -2.77123e-17 0)
(25.1622 -2.75984e-17 0)
(25.1738 -2.74848e-17 0)
(25.1853 -2.73716e-17 0)
(25.1965 -2.72587e-17 0)
(25.2075 -2.71462e-17 0)
(25.2183 -2.7034e-17 0)
(25.2289 -2.69221e-17 0)
(25.2393 -2.68106e-17 0)
(25.2495 -2.66994e-17 0)
(25.2595 -2.65886e-17 0)
(25.2693 -2.6478e-17 0)
(25.2789 -2.63679e-17 0)
(25.2883 -2.6258e-17 0)
(25.2974 -2.61485e-17 0)
(25.3064 -2.60394e-17 0)
(25.3152 -2.59305e-17 0)
(25.3237 -2.5822e-17 0)
(25.3321 -2.57138e-17 0)
(25.3403 -2.5606e-17 0)
(25.3482 -2.54984e-17 0)
(25.356 -2.53912e-17 0)
(25.3635 -2.52844e-17 0)
(25.3709 -2.51778e-17 0)
(25.378 -2.50716e-17 0)
(25.3849 -2.49657e-17 0)
(25.3917 -2.48601e-17 0)
(25.3982 -2.47548e-17 0)
(25.4045 -2.46499e-17 0)
(25.4106 -2.45453e-17 0)
(25.4165 -2.4441e-17 0)
(25.4222 -2.4337e-17 0)
(25.4278 -2.42333e-17 0)
(25.4331 -2.41299e-17 0)
(25.4382 -2.40269e-17 0)
(25.4431 -2.39242e-17 0)
(25.4477 -2.38217e-17 0)
(25.4522 -2.37196e-17 0)
(25.4565 -2.36178e-17 0)
(25.4606 -2.35163e-17 0)
(25.4645 -2.34151e-17 0)
(25.4681 -2.33143e-17 0)
(25.4716 -2.32137e-17 0)
(25.4749 -2.31134e-17 0)
(25.4779 -2.30134e-17 0)
(25.4808 -2.29138e-17 0)
(25.4834 -2.28144e-17 0)
(25.4859 -2.27154e-17 0)
(25.4881 -2.26166e-17 0)
(25.4902 -2.25182e-17 0)
(25.492 -2.242e-17 0)
(25.4936 -2.23221e-17 0)
(25.4951 -2.22246e-17 0)
(25.4963 -2.21273e-17 0)
(25.4973 -2.20304e-17 0)
(25.4981 -2.19338e-17 0)
(25.4987 -2.18373e-17 0)
(25.4991 -2.1741e-17 0)
(25.4993 -2.1645e-17 0)
(25.4993 -2.15491e-17 0)
(25.4991 -2.14535e-17 0)
(25.4987 -2.13581e-17 0)
(25.4981 -2.1263e-17 0)
(25.4973 -2.11681e-17 0)
(25.4963 -2.10734e-17 0)
(25.4951 -2.09791e-17 0)
(25.4936 -2.0885e-17 0)
(25.492 -2.07913e-17 0)
(25.4902 -2.06978e-17 0)
(25.4881 -2.06045e-17 0)
(25.4859 -2.05116e-17 0)
(25.4834 -2.0419e-17 0)
(25.4808 -2.03266e-17 0)
(25.4779 -2.02345e-17 0)
(25.4749 -2.01427e-17 0)
(25.4716 -2.00511e-17 0)
(25.4681 -1.99599e-17 0)
(25.4645 -1.98689e-17 0)
(25.4606 -1.97782e-17 0)
(25.4565 -1.96878e-17 0)
(25.4522 -1.95976e-17 0)
(25.4477 -1.95077e-17 0)
(25.4431 -1.94181e-17 0)
(25.4382 -1.93288e-17 0)
(25.4331 -1.92398e-17 0)
(25.4278 -1.9151e-17 0)
(25.4222 -1.90625e-17 0)
(25.4165 -1.89742e-17 0)
(25.4106 -1.88862e-17 0)
(25.4045 -1.87985e-17 0)
(25.3982 -1.87111e-17 0)
(25.3917 -1.86239e-17 0)
(25.3849 -1.8537e-17 0)
(25.378 -1.84504e-17 0)
(25.3709 -1.8364e-17 0)
(25.3635 -1.82779e-17 0)
(25.356 -1.81921e-17 0)
(25.3482 -1.81065e-17 0)
(25.3403 -1.80212e-17 0)
(25.3321 -1.79362e-17 0)
(25.3237 -1.78514e-17 0)
(25.3152 -1.77669e-17 0)
(25.3064 -1.76826e-17 0)
(25.2974 -1.75986e-17 0)
(25.2883 -1.75149e-17 0)
(25.2789 -1.74314e-17 0)
(25.2693 -1.73482e-17 0)
(25.2595 -1.72652e-17 0)
(25.2495 -1.71825e-17 0)
(25.2393 -1.71001e-17 0)
(25.2289 -1.70179e-17 0)
(25.2183 -1.6936e-17 0)
(25.2075 -1.68543e-17 0)
(25.1965 -1.67729e-17 0)
(25.1853 -1.66917e-17 0)
(25.1738 -1.66108e-17 0)
(25.1622 -1.65301e-17 0)
(25.1504 -1.64497e-17 0)
(25.1383 -1.63696e-17 0)
(25.1261 -1.62897e-17 0)
(25.1137 -1.621e-17 0)
(25.101 -1.61306e-17 0)
(25.0882 -1.60515e-17 0)
(25.0751 -1.59726e-17 0)
(25.0619 -1.58939e-17 0)
(25.0484 -1.58155e-17 0)
(25.0347 -1.57374e-17 0)
(25.0209 -1.56595e-17 0)
(25.0068 -1.55818e-17 0)
(24.9925 -1.55044e-17 0)
(24.978 -1.54272e-17 0)
(24.9633 -1.53503e-17 0)
(24.9485 -1.52737e-17 0)
(24.9334 -1.51972e-17 0)
(24.9181 -1.5121e-17 0)
(24.9026 -1.50451e-17 0)
(24.8869 -1.49694e-17 0)
(24.871 -1.4894e-17 0)
(24.8548 -1.48188e-17 0)
(24.8385 -1.47438e-17 0)
(24.822 -1.46691e-17 0)
(24.8053 -1.45946e-17 0)
(24.7883 -1.45204e-17 0)
(24.7712 -1.44464e-17 0)
(24.7539 -1.43726e-17 0)
(24.7363 -1.42991e-17 0)
(24.7186 -1.42258e-17 0)
(24.7006 -1.41528e-17 0)
(24.6825 -1.408e-17 0)
(24.6641 -1.40074e-17 0)
(24.6456 -1.39351e-17 0)
(24.6268 -1.3863e-17 0)
(24.6078 -1.37912e-17 0)
(24.5887 -1.37196e-17 0)
(24.5693 -1.36482e-17 0)
(24.5497 -1.35771e-17 0)
(24.5299 -1.35062e-17 0)
(24.5099 -1.34355e-17 0)
(24.4898 -1.3365e-17 0)
(24.4694 -1.32948e-17 0)
(24.4488 -1.32249e-17 0)
(24.4279 -1.31551e-17 0)
(24.4069 -1.30856e-17 0)
(24.3857 -1.30164e-17 0)
(24.3643 -1.29473e-17 0)
(24.3427 -1.28785e-17 0)
(24.3209 -1.281e-17 0)
(24.2988 -1.27416e-17 0)
(24.2766 -1.26735e-17 0)
(24.2542 -1.26056e-17 0)
(24.2315 -1.2538e-17 0)
(24.2087 -1.24706e-17 0)
(24.1856 -1.24034e-17 0)
(24.1624 -1.23364e-17 0)
(24.1389 -1.22697e-17 0)
(24.1153 -1.22031e-17 0)
(24.0914 -1.21369e-17 0)
(24.0673 -1.20708e-17 0)
(24.0431 -1.2005e-17 0)
(24.0186 -1.19394e-17 0)
(23.9939 -1.1874e-17 0)
(23.969 -1.18089e-17 0)
(23.9439 -1.17439e-17 0)
(23.9187 -1.16792e-17 0)
(23.8932 -1.16147e-17 0)
(23.8675 -1.15505e-17 0)
(23.8416 -1.14865e-17 0)
(23.8154 -1.14227e-17 0)
(23.7891 -1.13591e-17 0)
(23.7626 -1.12957e-17 0)
(23.7359 -1.12326e-17 0)
(23.709 -1.11697e-17 0)
(23.6818 -1.1107e-17 0)
(23.6545 -1.10445e-17 0)
(23.627 -1.09822e-17 0)
(23.5992 -1.09202e-17 0)
(23.5713 -1.08584e-17 0)
(23.5431 -1.07968e-17 0)
(23.5148 -1.07354e-17 0)
(23.4862 -1.06743e-17 0)
(23.4575 -1.06133e-17 0)
(23.4285 -1.05526e-17 0)
(23.3994 -1.04921e-17 0)
(23.37 -1.04318e-17 0)
(23.3404 -1.03718e-17 0)
(23.3106 -1.03119e-17 0)
(23.2806 -1.02523e-17 0)
(23.2505 -1.01929e-17 0)
(23.2201 -1.01337e-17 0)
(23.1895 -1.00747e-17 0)
(23.1587 -1.00159e-17 0)
(23.1277 -9.95734e-18 0)
(23.0965 -9.899e-18 0)
(23.065 -9.84087e-18 0)
(23.0334 -9.78295e-18 0)
(23.0016 -9.72525e-18 0)
(22.9696 -9.66776e-18 0)
(22.9374 -9.61048e-18 0)
(22.9049 -9.55341e-18 0)
(22.8723 -9.49655e-18 0)
(22.8395 -9.43991e-18 0)
(22.8064 -9.38348e-18 0)
(22.7732 -9.32725e-18 0)
(22.7397 -9.27124e-18 0)
(22.7061 -9.21543e-18 0)
(22.6722 -9.15984e-18 0)
(22.6381 -9.10446e-18 0)
(22.6039 -9.04928e-18 0)
(22.5694 -8.99431e-18 0)
(22.5347 -8.93955e-18 0)
(22.4998 -8.885e-18 0)
(22.4648 -8.83065e-18 0)
(22.4295 -8.77651e-18 0)
(22.394 -8.72258e-18 0)
(22.3583 -8.66885e-18 0)
(22.3224 -8.61533e-18 0)
(22.2863 -8.56202e-18 0)
(22.25 -8.50891e-18 0)
(22.2135 -8.456e-18 0)
(22.1767 -8.4033e-18 0)
(22.1398 -8.3508e-18 0)
(22.1027 -8.29851e-18 0)
(22.0654 -8.24642e-18 0)
(22.0278 -8.19453e-18 0)
(21.9901 -8.14284e-18 0)
(21.9522 -8.09136e-18 0)
(21.914 -8.04008e-18 0)
(21.8757 -7.989e-18 0)
(21.8371 -7.93812e-18 0)
(21.7984 -7.88744e-18 0)
(21.7594 -7.83696e-18 0)
(21.7202 -7.78668e-18 0)
(21.6809 -7.73661e-18 0)
(21.6413 -7.68673e-18 0)
(21.6015 -7.63705e-18 0)
(21.5616 -7.58756e-18 0)
(21.5214 -7.53828e-18 0)
(21.481 -7.48919e-18 0)
(21.4404 -7.4403e-18 0)
(21.3996 -7.39161e-18 0)
(21.3586 -7.34312e-18 0)
(21.3174 -7.29482e-18 0)
(21.276 -7.24672e-18 0)
(21.2344 -7.19881e-18 0)
(21.1926 -7.1511e-18 0)
(21.1505 -7.10358e-18 0)
(21.1083 -7.05626e-18 0)
(21.0659 -7.00913e-18 0)
(21.0233 -6.9622e-18 0)
(20.9804 -6.91546e-18 0)
(20.9374 -6.86891e-18 0)
(20.8941 -6.82255e-18 0)
(20.8507 -6.77639e-18 0)
(20.807 -6.73042e-18 0)
(20.7632 -6.68464e-18 0)
(20.7191 -6.63905e-18 0)
(20.6749 -6.59365e-18 0)
(20.6304 -6.54845e-18 0)
(20.5857 -6.50343e-18 0)
(20.5408 -6.4586e-18 0)
(20.4958 -6.41397e-18 0)
(20.4505 -6.36952e-18 0)
(20.405 -6.32526e-18 0)
(20.3593 -6.28119e-18 0)
(20.3134 -6.2373e-18 0)
(20.2673 -6.19361e-18 0)
(20.221 -6.1501e-18 0)
(20.1745 -6.10678e-18 0)
(20.1278 -6.06364e-18 0)
(20.0809 -6.02069e-18 0)
(20.0337 -5.97793e-18 0)
(19.9864 -5.93535e-18 0)
(19.9389 -5.89296e-18 0)
(19.8911 -5.85075e-18 0)
(19.8432 -5.80873e-18 0)
(19.7951 -5.76689e-18 0)
(19.7467 -5.72523e-18 0)
(19.6982 -5.68376e-18 0)
(19.6494 -5.64247e-18 0)
(19.6005 -5.60136e-18 0)
(19.5513 -5.56043e-18 0)
(19.5019 -5.51969e-18 0)
(19.4524 -5.47913e-18 0)
(19.4026 -5.43874e-18 0)
(19.3526 -5.39854e-18 0)
(19.3024 -5.35852e-18 0)
(19.2521 -5.31868e-18 0)
(19.2015 -5.27902e-18 0)
(19.1507 -5.23954e-18 0)
(19.0997 -5.20024e-18 0)
(19.0485 -5.16111e-18 0)
(18.9971 -5.12216e-18 0)
(18.9455 -5.0834e-18 0)
(18.8937 -5.0448e-18 0)
(18.8416 -5.00639e-18 0)
(18.7894 -4.96815e-18 0)
(18.737 -4.93009e-18 0)
(18.6844 -4.8922e-18 0)
(18.6315 -4.85449e-18 0)
(18.5785 -4.81696e-18 0)
(18.5253 -4.7796e-18 0)
(18.4718 -4.74241e-18 0)
(18.4182 -4.7054e-18 0)
(18.3643 -4.66856e-18 0)
(18.3102 -4.6319e-18 0)
(18.256 -4.59541e-18 0)
(18.2015 -4.55909e-18 0)
(18.1469 -4.52294e-18 0)
(18.092 -4.48697e-18 0)
(18.0369 -4.45116e-18 0)
(17.9816 -4.41553e-18 0)
(17.9261 -4.38007e-18 0)
(17.8704 -4.34478e-18 0)
(17.8145 -4.30966e-18 0)
(17.7585 -4.27471e-18 0)
(17.7022 -4.23993e-18 0)
(17.6456 -4.20531e-18 0)
(17.5889 -4.17087e-18 0)
(17.532 -4.13659e-18 0)
(17.4749 -4.10249e-18 0)
(17.4176 -4.06855e-18 0)
(17.3601 -4.03477e-18 0)
(17.3023 -4.00116e-18 0)
(17.2444 -3.96772e-18 0)
(17.1863 -3.93445e-18 0)
(17.1279 -3.90134e-18 0)
(17.0694 -3.8684e-18 0)
(17.0106 -3.83562e-18 0)
(16.9517 -3.80301e-18 0)
(16.8925 -3.77056e-18 0)
(16.8331 -3.73827e-18 0)
(16.7736 -3.70615e-18 0)
(16.7138 -3.67419e-18 0)
(16.6538 -3.6424e-18 0)
(16.5937 -3.61076e-18 0)
(16.5333 -3.57929e-18 0)
(16.4727 -3.54798e-18 0)
(16.4119 -3.51683e-18 0)
(16.3509 -3.48585e-18 0)
(16.2897 -3.45502e-18 0)
(16.2283 -3.42435e-18 0)
(16.1667 -3.39385e-18 0)
(16.1049 -3.3635e-18 0)
(16.0429 -3.33331e-18 0)
(15.9806 -3.30328e-18 0)
(15.9182 -3.27341e-18 0)
(15.8556 -3.2437e-18 0)
(15.7928 -3.21414e-18 0)
(15.7297 -3.18475e-18 0)
(15.6665 -3.15551e-18 0)
(15.6031 -3.12642e-18 0)
(15.5394 -3.0975e-18 0)
(15.4756 -3.06872e-18 0)
(15.4115 -3.04011e-18 0)
(15.3472 -3.01165e-18 0)
(15.2828 -2.98334e-18 0)
(15.2181 -2.95519e-18 0)
(15.1532 -2.92719e-18 0)
(15.0882 -2.89935e-18 0)
(15.0229 -2.87166e-18 0)
(14.9574 -2.84412e-18 0)
(14.8917 -2.81674e-18 0)
(14.8258 -2.78951e-18 0)
(14.7597 -2.76243e-18 0)
(14.6934 -2.7355e-18 0)
(14.6269 -2.70872e-18 0)
(14.5602 -2.6821e-18 0)
(14.4933 -2.65562e-18 0)
(14.4262 -2.6293e-18 0)
(14.3589 -2.60312e-18 0)
(14.2913 -2.5771e-18 0)
(14.2236 -2.55122e-18 0)
(14.1557 -2.52549e-18 0)
(14.0876 -2.49991e-18 0)
(14.0192 -2.47448e-18 0)
(13.9507 -2.4492e-18 0)
(13.8819 -2.42406e-18 0)
(13.813 -2.39907e-18 0)
(13.7438 -2.37423e-18 0)
(13.6745 -2.34953e-18 0)
(13.6049 -2.32498e-18 0)
(13.5351 -2.30058e-18 0)
(13.4652 -2.27632e-18 0)
(13.395 -2.2522e-18 0)
(13.3246 -2.22823e-18 0)
(13.254 -2.2044e-18 0)
(13.1832 -2.18072e-18 0)
(13.1122 -2.15718e-18 0)
(13.041 -2.13379e-18 0)
(12.9696 -2.11053e-18 0)
(12.898 -2.08742e-18 0)
(12.8262 -2.06445e-18 0)
(12.7542 -2.04163e-18 0)
(12.682 -2.01894e-18 0)
(12.6096 -1.99639e-18 0)
(12.5369 -1.97399e-18 0)
(12.4641 -1.95173e-18 0)
(12.3911 -1.9296e-18 0)
(12.3179 -1.90762e-18 0)
(12.2444 -1.88577e-18 0)
(12.1708 -1.86406e-18 0)
(12.0969 -1.8425e-18 0)
(12.0229 -1.82107e-18 0)
(11.9486 -1.79977e-18 0)
(11.8741 -1.77862e-18 0)
(11.7995 -1.7576e-18 0)
(11.7246 -1.73672e-18 0)
(11.6495 -1.71598e-18 0)
(11.5743 -1.69537e-18 0)
(11.4988 -1.67489e-18 0)
(11.4231 -1.65456e-18 0)
(11.3472 -1.63436e-18 0)
(11.2711 -1.61429e-18 0)
(11.1948 -1.59435e-18 0)
(11.1183 -1.57456e-18 0)
(11.0416 -1.55489e-18 0)
(10.9647 -1.53536e-18 0)
(10.8876 -1.51596e-18 0)
(10.8103 -1.49669e-18 0)
(10.7328 -1.47756e-18 0)
(10.655 -1.45856e-18 0)
(10.5771 -1.43969e-18 0)
(10.499 -1.42095e-18 0)
(10.4206 -1.40235e-18 0)
(10.3421 -1.38387e-18 0)
(10.2633 -1.36552e-18 0)
(10.1844 -1.34731e-18 0)
(10.1052 -1.32922e-18 0)
(10.0259 -1.31127e-18 0)
(9.94632 -1.29344e-18 0)
(9.86655 -1.27574e-18 0)
(9.78658 -1.25817e-18 0)
(9.70641 -1.24073e-18 0)
(9.62603 -1.22342e-18 0)
(9.54545 -1.20624e-18 0)
(9.46467 -1.18918e-18 0)
(9.38368 -1.17225e-18 0)
(9.30248 -1.15545e-18 0)
(9.22108 -1.13877e-18 0)
(9.13948 -1.12222e-18 0)
(9.05768 -1.1058e-18 0)
(8.97567 -1.0895e-18 0)
(8.89345 -1.07332e-18 0)
(8.81104 -1.05728e-18 0)
(8.72841 -1.04135e-18 0)
(8.64559 -1.02556e-18 0)
(8.56256 -1.00988e-18 0)
(8.47932 -9.9433e-19 0)
(8.39589 -9.78903e-19 0)
(8.31224 -9.63599e-19 0)
(8.2284 -9.48417e-19 0)
(8.14435 -9.33359e-19 0)
(8.06009 -9.18423e-19 0)
(7.97564 -9.03608e-19 0)
(7.89097 -8.88915e-19 0)
(7.80611 -8.74343e-19 0)
(7.72104 -8.59892e-19 0)
(7.63576 -8.45561e-19 0)
(7.55028 -8.3135e-19 0)
(7.4646 -8.17259e-19 0)
(7.37872 -8.03287e-19 0)
(7.29263 -7.89434e-19 0)
(7.20633 -7.75699e-19 0)
(7.11983 -7.62082e-19 0)
(7.03313 -7.48582e-19 0)
(6.94622 -7.35199e-19 0)
(6.85911 -7.21932e-19 0)
(6.7718 -7.08781e-19 0)
(6.68428 -6.95746e-19 0)
(6.59656 -6.82825e-19 0)
(6.50863 -6.70018e-19 0)
(6.4205 -6.57325e-19 0)
(6.33217 -6.44744e-19 0)
(6.24363 -6.32276e-19 0)
(6.15489 -6.19919e-19 0)
(6.06594 -6.07673e-19 0)
(5.97679 -5.95537e-19 0)
(5.88743 -5.8351e-19 0)
(5.79787 -5.71591e-19 0)
(5.70811 -5.5978e-19 0)
(5.61815 -5.48076e-19 0)
(5.52797 -5.36478e-19 0)
(5.4376 -5.24984e-19 0)
(5.34702 -5.13595e-19 0)
(5.25624 -5.02309e-19 0)
(5.16525 -4.91124e-19 0)
(5.07406 -4.8004e-19 0)
(4.98267 -4.69056e-19 0)
(4.89107 -4.58171e-19 0)
(4.79926 -4.47383e-19 0)
(4.70726 -4.36691e-19 0)
(4.61505 -4.26094e-19 0)
(4.52263 -4.15591e-19 0)
(4.43001 -4.0518e-19 0)
(4.33719 -3.9486e-19 0)
(4.24416 -3.8463e-19 0)
(4.15093 -3.74488e-19 0)
(4.0575 -3.64432e-19 0)
(3.96386 -3.54462e-19 0)
(3.87001 -3.44575e-19 0)
(3.77597 -3.3477e-19 0)
(3.68172 -3.25046e-19 0)
(3.58726 -3.154e-19 0)
(3.4926 -3.05831e-19 0)
(3.39774 -2.96338e-19 0)
(3.30267 -2.86917e-19 0)
(3.2074 -2.77569e-19 0)
(3.11192 -2.6829e-19 0)
(3.01625 -2.5908e-19 0)
(2.92036 -2.49935e-19 0)
(2.82427 -2.40854e-19 0)
(2.72798 -2.31836e-19 0)
(2.63149 -2.22878e-19 0)
(2.53479 -2.13978e-19 0)
(2.43789 -2.05134e-19 0)
(2.34078 -1.96344e-19 0)
(2.24347 -1.87605e-19 0)
(2.14595 -1.78917e-19 0)
(2.04823 -1.70276e-19 0)
(1.95031 -1.61681e-19 0)
(1.85218 -1.5313e-19 0)
(1.75385 -1.44619e-19 0)
(1.65531 -1.36147e-19 0)
(1.55657 -1.27712e-19 0)
(1.45763 -1.19312e-19 0)
(1.35848 -1.10944e-19 0)
(1.25913 -1.02606e-19 0)
(1.15958 -9.42954e-20 0)
(1.05982 -8.60107e-20 0)
(0.959854 -7.77493e-20 0)
(0.859686 -6.9509e-20 0)
(0.759315 -6.12874e-20 0)
(0.658739 -5.30824e-20 0)
(0.55796 -4.48918e-20 0)
(0.456976 -3.67132e-20 0)
(0.355789 -2.85445e-20 0)
(0.254397 -2.03834e-20 0)
(0.152801 -1.22278e-20 0)
(0.0510018 -4.07538e-21 0)
)
;

boundaryField
{
    top_wall
    {
        type            noSlip;
    }
    inlet
    {
        type            cyclic;
    }
    bot_wall
    {
        type            noSlip;
    }
    outlet
    {
        type            cyclic;
    }
    frontAndBack
    {
        type            empty;
    }
}


// ************************************************************************* //
