/*--------------------------------*- C++ -*----------------------------------*\
| =========                 |                                                 |
| \\      /  F ield         | OpenFOAM: The Open Source CFD Toolbox           |
|  \\    /   O peration     | Version:  2312                                  |
|   \\  /    A nd           | Website:  www.openfoam.com                      |
|    \\/     M anipulation  |                                                 |
\*---------------------------------------------------------------------------*/
FoamFile
{
    version     2.0;
    format      ascii;
    arch        "LSB;label=32;scalar=64";
    class       volVectorField;
    location    "13.785";
    object      U;
}
// * * * * * * * * * * * * * * * * * * * * * * * * * * * * * * * * * * * * * //

dimensions      [0 1 -1 0 0 0 0];

internalField   nonuniform List<vector> 
1000
(
(0.219776 -4.81414e-18 0)
(0.316555 -5.33887e-18 0)
(0.371695 -5.56159e-18 0)
(0.408211 -5.49499e-18 0)
(0.435251 -5.48e-18 0)
(0.456667 -5.49158e-18 0)
(0.474387 -5.49774e-18 0)
(0.489502 -5.44066e-18 0)
(0.502687 -5.33896e-18 0)
(0.514384 -5.26243e-18 0)
(0.524901 -5.35862e-18 0)
(0.534459 -5.56565e-18 0)
(0.543223 -5.68947e-18 0)
(0.551319 -5.75945e-18 0)
(0.558844 -5.83566e-18 0)
(0.565877 -5.88516e-18 0)
(0.572481 -5.87881e-18 0)
(0.578706 -5.85203e-18 0)
(0.584597 -5.82838e-18 0)
(0.590189 -5.80662e-18 0)
(0.595513 -5.78703e-18 0)
(0.600594 -5.76962e-18 0)
(0.605455 -5.75425e-18 0)
(0.610115 -5.74061e-18 0)
(0.614592 -5.72967e-18 0)
(0.618899 -5.72095e-18 0)
(0.623052 -5.71402e-18 0)
(0.62706 -5.70855e-18 0)
(0.630934 -5.70426e-18 0)
(0.634684 -5.70094e-18 0)
(0.638319 -5.69841e-18 0)
(0.641844 -5.69655e-18 0)
(0.645269 -5.69526e-18 0)
(0.648597 -5.69445e-18 0)
(0.651836 -5.69408e-18 0)
(0.65499 -5.6941e-18 0)
(0.658064 -5.69446e-18 0)
(0.661063 -5.69516e-18 0)
(0.66399 -5.69615e-18 0)
(0.666848 -5.69743e-18 0)
(0.669643 -5.69897e-18 0)
(0.672375 -5.70075e-18 0)
(0.675049 -5.70277e-18 0)
(0.677667 -5.705e-18 0)
(0.680232 -5.70744e-18 0)
(0.682746 -5.71006e-18 0)
(0.685211 -5.71285e-18 0)
(0.687629 -5.71581e-18 0)
(0.690002 -5.71891e-18 0)
(0.692332 -5.72216e-18 0)
(0.694621 -5.72553e-18 0)
(0.69687 -5.72902e-18 0)
(0.69908 -5.73262e-18 0)
(0.701254 -5.73632e-18 0)
(0.703392 -5.74011e-18 0)
(0.705496 -5.744e-18 0)
(0.707567 -5.74796e-18 0)
(0.709606 -5.75201e-18 0)
(0.711613 -5.75612e-18 0)
(0.713591 -5.7603e-18 0)
(0.71554 -5.76455e-18 0)
(0.717461 -5.76886e-18 0)
(0.719355 -5.77322e-18 0)
(0.721222 -5.77765e-18 0)
(0.723064 -5.78212e-18 0)
(0.724881 -5.78665e-18 0)
(0.726674 -5.79122e-18 0)
(0.728444 -5.79585e-18 0)
(0.730191 -5.80051e-18 0)
(0.731915 -5.80523e-18 0)
(0.733618 -5.80998e-18 0)
(0.735301 -5.81477e-18 0)
(0.736962 -5.81961e-18 0)
(0.738604 -5.82448e-18 0)
(0.740227 -5.82939e-18 0)
(0.74183 -5.83433e-18 0)
(0.743415 -5.83931e-18 0)
(0.744982 -5.84431e-18 0)
(0.746532 -5.84935e-18 0)
(0.748064 -5.85442e-18 0)
(0.74958 -5.85951e-18 0)
(0.751079 -5.86463e-18 0)
(0.752562 -5.86978e-18 0)
(0.75403 -5.87495e-18 0)
(0.755482 -5.88015e-18 0)
(0.756919 -5.88537e-18 0)
(0.758342 -5.89061e-18 0)
(0.75975 -5.89588e-18 0)
(0.761144 -5.90118e-18 0)
(0.762525 -5.90649e-18 0)
(0.763891 -5.91184e-18 0)
(0.765245 -5.91721e-18 0)
(0.766586 -5.9226e-18 0)
(0.767913 -5.92802e-18 0)
(0.769229 -5.93347e-18 0)
(0.770532 -5.93894e-18 0)
(0.771823 -5.94444e-18 0)
(0.773102 -5.94996e-18 0)
(0.77437 -5.95549e-18 0)
(0.775626 -5.96104e-18 0)
(0.776871 -5.96659e-18 0)
(0.778105 -5.97214e-18 0)
(0.779328 -5.97766e-18 0)
(0.780541 -5.98314e-18 0)
(0.781743 -5.98856e-18 0)
(0.782935 -5.99388e-18 0)
(0.784117 -5.99907e-18 0)
(0.785288 -6.00408e-18 0)
(0.786451 -6.00887e-18 0)
(0.787603 -6.01336e-18 0)
(0.788746 -6.0175e-18 0)
(0.78988 -6.02118e-18 0)
(0.791004 -6.02432e-18 0)
(0.792119 -6.02682e-18 0)
(0.793226 -6.02855e-18 0)
(0.794324 -6.02939e-18 0)
(0.795413 -6.02965e-18 0)
(0.796493 -6.02918e-18 0)
(0.797565 -6.02787e-18 0)
(0.798629 -6.0256e-18 0)
(0.799685 -6.02225e-18 0)
(0.800732 -6.01769e-18 0)
(0.801772 -6.01183e-18 0)
(0.802804 -6.00457e-18 0)
(0.803828 -5.99584e-18 0)
(0.804845 -5.9856e-18 0)
(0.805854 -5.97385e-18 0)
(0.806855 -5.96058e-18 0)
(0.80785 -5.94579e-18 0)
(0.808837 -5.9295e-18 0)
(0.809817 -5.91168e-18 0)
(0.81079 -5.89231e-18 0)
(0.811756 -5.87131e-18 0)
(0.812715 -5.84832e-18 0)
(0.813667 -5.82309e-18 0)
(0.814613 -5.79518e-18 0)
(0.815552 -5.7642e-18 0)
(0.816484 -5.72957e-18 0)
(0.81741 -5.69182e-18 0)
(0.81833 -5.62828e-18 0)
(0.819243 -5.43886e-18 0)
(0.82015 -5.24824e-18 0)
(0.821051 -5.18105e-18 0)
(0.821946 -5.13703e-18 0)
(0.822835 -5.09369e-18 0)
(0.823718 -5.05133e-18 0)
(0.824595 -5.00937e-18 0)
(0.825466 -4.96739e-18 0)
(0.826332 -4.92499e-18 0)
(0.827192 -4.88188e-18 0)
(0.828046 -4.83794e-18 0)
(0.828895 -4.79312e-18 0)
(0.829738 -4.74723e-18 0)
(0.830575 -4.70032e-18 0)
(0.831408 -4.65243e-18 0)
(0.832235 -4.6036e-18 0)
(0.833056 -4.55388e-18 0)
(0.833873 -4.50308e-18 0)
(0.834684 -4.45142e-18 0)
(0.835491 -4.39889e-18 0)
(0.836292 -4.3455e-18 0)
(0.837088 -4.29125e-18 0)
(0.837879 -4.23614e-18 0)
(0.838666 -4.18018e-18 0)
(0.839447 -4.12338e-18 0)
(0.840224 -4.06576e-18 0)
(0.840996 -4.00735e-18 0)
(0.841763 -3.9482e-18 0)
(0.842525 -3.88775e-18 0)
(0.843283 -3.83474e-18 0)
(0.844037 -3.83776e-18 0)
(0.844786 -3.89316e-18 0)
(0.84553 -3.94711e-18 0)
(0.84627 -3.9578e-18 0)
(0.847005 -3.93422e-18 0)
(0.847736 -3.91271e-18 0)
(0.848463 -3.89077e-18 0)
(0.849185 -3.8687e-18 0)
(0.849904 -3.84641e-18 0)
(0.850618 -3.82401e-18 0)
(0.851328 -3.80162e-18 0)
(0.852033 -3.77935e-18 0)
(0.852735 -3.75731e-18 0)
(0.853432 -3.73563e-18 0)
(0.854126 -3.71446e-18 0)
(0.854815 -3.69377e-18 0)
(0.855501 -3.67375e-18 0)
(0.856183 -3.65462e-18 0)
(0.85686 -3.63664e-18 0)
(0.857534 -3.6201e-18 0)
(0.858204 -3.60518e-18 0)
(0.85887 -3.59232e-18 0)
(0.859533 -3.58182e-18 0)
(0.860192 -3.57408e-18 0)
(0.860847 -3.56954e-18 0)
(0.861498 -3.56868e-18 0)
(0.862146 -3.572e-18 0)
(0.86279 -3.57977e-18 0)
(0.86343 -3.59241e-18 0)
(0.864067 -3.61017e-18 0)
(0.8647 -3.63318e-18 0)
(0.86533 -3.65936e-18 0)
(0.865957 -3.71475e-18 0)
(0.86658 -3.85849e-18 0)
(0.867199 -4.00263e-18 0)
(0.867815 -4.05869e-18 0)
(0.868428 -4.08604e-18 0)
(0.869037 -4.11055e-18 0)
(0.869643 -4.13014e-18 0)
(0.870246 -4.14509e-18 0)
(0.870845 -4.15569e-18 0)
(0.871441 -4.16213e-18 0)
(0.872034 -4.16489e-18 0)
(0.872624 -4.16429e-18 0)
(0.87321 -4.16078e-18 0)
(0.873794 -4.1548e-18 0)
(0.874374 -4.14671e-18 0)
(0.874951 -4.13701e-18 0)
(0.875525 -4.12589e-18 0)
(0.876095 -4.1137e-18 0)
(0.876663 -4.1007e-18 0)
(0.877228 -4.08692e-18 0)
(0.877789 -4.07251e-18 0)
(0.878348 -4.05758e-18 0)
(0.878904 -4.04223e-18 0)
(0.879456 -4.02652e-18 0)
(0.880006 -4.01047e-18 0)
(0.880552 -3.99413e-18 0)
(0.881096 -3.97751e-18 0)
(0.881637 -3.96063e-18 0)
(0.882175 -3.94349e-18 0)
(0.88271 -3.92611e-18 0)
(0.883242 -3.9085e-18 0)
(0.883771 -3.89067e-18 0)
(0.884298 -3.87262e-18 0)
(0.884822 -3.85435e-18 0)
(0.885342 -3.83586e-18 0)
(0.88586 -3.81715e-18 0)
(0.886376 -3.79824e-18 0)
(0.886888 -3.77915e-18 0)
(0.887398 -3.75988e-18 0)
(0.887905 -3.74045e-18 0)
(0.888409 -3.72088e-18 0)
(0.888911 -3.70118e-18 0)
(0.88941 -3.68137e-18 0)
(0.889906 -3.66146e-18 0)
(0.890399 -3.64147e-18 0)
(0.89089 -3.62141e-18 0)
(0.891378 -3.60128e-18 0)
(0.891864 -3.5811e-18 0)
(0.892346 -3.56089e-18 0)
(0.892827 -3.54063e-18 0)
(0.893304 -3.52035e-18 0)
(0.893779 -3.50005e-18 0)
(0.894252 -3.47974e-18 0)
(0.894722 -3.45941e-18 0)
(0.895189 -3.43908e-18 0)
(0.895654 -3.41874e-18 0)
(0.896116 -3.39841e-18 0)
(0.896576 -3.37807e-18 0)
(0.897033 -3.35775e-18 0)
(0.897487 -3.33743e-18 0)
(0.897939 -3.31712e-18 0)
(0.898389 -3.29682e-18 0)
(0.898836 -3.27654e-18 0)
(0.89928 -3.25628e-18 0)
(0.899723 -3.23603e-18 0)
(0.900162 -3.21581e-18 0)
(0.900599 -3.1956e-18 0)
(0.901034 -3.17543e-18 0)
(0.901466 -3.15527e-18 0)
(0.901896 -3.13515e-18 0)
(0.902323 -3.11506e-18 0)
(0.902748 -3.095e-18 0)
(0.903171 -3.07497e-18 0)
(0.903591 -3.05498e-18 0)
(0.904008 -3.03503e-18 0)
(0.904424 -3.01513e-18 0)
(0.904836 -2.99526e-18 0)
(0.905247 -2.97544e-18 0)
(0.905655 -2.95566e-18 0)
(0.90606 -2.93594e-18 0)
(0.906464 -2.91627e-18 0)
(0.906865 -2.89665e-18 0)
(0.907263 -2.87708e-18 0)
(0.907659 -2.85758e-18 0)
(0.908053 -2.83813e-18 0)
(0.908445 -2.81874e-18 0)
(0.908834 -2.79942e-18 0)
(0.909221 -2.78016e-18 0)
(0.909605 -2.76096e-18 0)
(0.909987 -2.74184e-18 0)
(0.910367 -2.72278e-18 0)
(0.910745 -2.7038e-18 0)
(0.91112 -2.68489e-18 0)
(0.911493 -2.66605e-18 0)
(0.911863 -2.6473e-18 0)
(0.912232 -2.62861e-18 0)
(0.912598 -2.61001e-18 0)
(0.912961 -2.59149e-18 0)
(0.913323 -2.57304e-18 0)
(0.913682 -2.55468e-18 0)
(0.914039 -2.53641e-18 0)
(0.914394 -2.51822e-18 0)
(0.914746 -2.50011e-18 0)
(0.915096 -2.4821e-18 0)
(0.915444 -2.46417e-18 0)
(0.915789 -2.44633e-18 0)
(0.916133 -2.42858e-18 0)
(0.916474 -2.41092e-18 0)
(0.916813 -2.39336e-18 0)
(0.917149 -2.37588e-18 0)
(0.917483 -2.3585e-18 0)
(0.917816 -2.34122e-18 0)
(0.918146 -2.32403e-18 0)
(0.918473 -2.30694e-18 0)
(0.918799 -2.28994e-18 0)
(0.919122 -2.27305e-18 0)
(0.919443 -2.25625e-18 0)
(0.919762 -2.23955e-18 0)
(0.920079 -2.22294e-18 0)
(0.920393 -2.20644e-18 0)
(0.920705 -2.19004e-18 0)
(0.921015 -2.17374e-18 0)
(0.921323 -2.15755e-18 0)
(0.921629 -2.14145e-18 0)
(0.921933 -2.12546e-18 0)
(0.922234 -2.10958e-18 0)
(0.922533 -2.09379e-18 0)
(0.92283 -2.07811e-18 0)
(0.923125 -2.06254e-18 0)
(0.923418 -2.04707e-18 0)
(0.923709 -2.0317e-18 0)
(0.923997 -2.01644e-18 0)
(0.924283 -2.00129e-18 0)
(0.924568 -1.98625e-18 0)
(0.92485 -1.97131e-18 0)
(0.92513 -1.95647e-18 0)
(0.925407 -1.94175e-18 0)
(0.925683 -1.92713e-18 0)
(0.925957 -1.91262e-18 0)
(0.926228 -1.89821e-18 0)
(0.926498 -1.88392e-18 0)
(0.926765 -1.86973e-18 0)
(0.92703 -1.85565e-18 0)
(0.927293 -1.84168e-18 0)
(0.927554 -1.82781e-18 0)
(0.927813 -1.81405e-18 0)
(0.92807 -1.8004e-18 0)
(0.928325 -1.78686e-18 0)
(0.928578 -1.77343e-18 0)
(0.928828 -1.76011e-18 0)
(0.929077 -1.74689e-18 0)
(0.929324 -1.73378e-18 0)
(0.929568 -1.72079e-18 0)
(0.929811 -1.7079e-18 0)
(0.930051 -1.69508e-18 0)
(0.93029 -1.68231e-18 0)
(0.930526 -1.66965e-18 0)
(0.93076 -1.65709e-18 0)
(0.930993 -1.64463e-18 0)
(0.931223 -1.63223e-18 0)
(0.931452 -1.61988e-18 0)
(0.931678 -1.6076e-18 0)
(0.931902 -1.59541e-18 0)
(0.932125 -1.58333e-18 0)
(0.932345 -1.57134e-18 0)
(0.932564 -1.55946e-18 0)
(0.93278 -1.54763e-18 0)
(0.932995 -1.53587e-18 0)
(0.933207 -1.52417e-18 0)
(0.933418 -1.51252e-18 0)
(0.933627 -1.50098e-18 0)
(0.933833 -1.48954e-18 0)
(0.934038 -1.47819e-18 0)
(0.934241 -1.46695e-18 0)
(0.934442 -1.45577e-18 0)
(0.934641 -1.44464e-18 0)
(0.934838 -1.43358e-18 0)
(0.935033 -1.42257e-18 0)
(0.935227 -1.41166e-18 0)
(0.935418 -1.40084e-18 0)
(0.935608 -1.39012e-18 0)
(0.935795 -1.37949e-18 0)
(0.935981 -1.36896e-18 0)
(0.936165 -1.35848e-18 0)
(0.936347 -1.34806e-18 0)
(0.936527 -1.3377e-18 0)
(0.936705 -1.32739e-18 0)
(0.936882 -1.31717e-18 0)
(0.937056 -1.30705e-18 0)
(0.937229 -1.29702e-18 0)
(0.9374 -1.28709e-18 0)
(0.937569 -1.2772e-18 0)
(0.937736 -1.26736e-18 0)
(0.937902 -1.25762e-18 0)
(0.938065 -1.24797e-18 0)
(0.938227 -1.23837e-18 0)
(0.938387 -1.22883e-18 0)
(0.938545 -1.21933e-18 0)
(0.938702 -1.20992e-18 0)
(0.938856 -1.2006e-18 0)
(0.939009 -1.19137e-18 0)
(0.93916 -1.18223e-18 0)
(0.93931 -1.17314e-18 0)
(0.939457 -1.1641e-18 0)
(0.939603 -1.1551e-18 0)
(0.939747 -1.14619e-18 0)
(0.93989 -1.13737e-18 0)
(0.94003 -1.12863e-18 0)
(0.940169 -1.11999e-18 0)
(0.940306 -1.11139e-18 0)
(0.940442 -1.10282e-18 0)
(0.940576 -1.09435e-18 0)
(0.940708 -1.08596e-18 0)
(0.940838 -1.07765e-18 0)
(0.940966 -1.06943e-18 0)
(0.941093 -1.06125e-18 0)
(0.941219 -1.05316e-18 0)
(0.941342 -1.04512e-18 0)
(0.941464 -1.03715e-18 0)
(0.941584 -1.02923e-18 0)
(0.941703 -1.02137e-18 0)
(0.94182 -1.01357e-18 0)
(0.941935 -1.00583e-18 0)
(0.942048 -9.98137e-19 0)
(0.94216 -9.90503e-19 0)
(0.94227 -9.82923e-19 0)
(0.942379 -9.75397e-19 0)
(0.942486 -9.67924e-19 0)
(0.942591 -9.60503e-19 0)
(0.942695 -9.53135e-19 0)
(0.942797 -9.45818e-19 0)
(0.942898 -9.38552e-19 0)
(0.942997 -9.31336e-19 0)
(0.943094 -9.2417e-19 0)
(0.94319 -9.17053e-19 0)
(0.943284 -9.09984e-19 0)
(0.943376 -9.02964e-19 0)
(0.943467 -8.95991e-19 0)
(0.943557 -8.89066e-19 0)
(0.943644 -8.82186e-19 0)
(0.943731 -8.75353e-19 0)
(0.943815 -8.68565e-19 0)
(0.943898 -8.6182e-19 0)
(0.94398 -8.5512e-19 0)
(0.94406 -8.48462e-19 0)
(0.944138 -8.41844e-19 0)
(0.944215 -8.35267e-19 0)
(0.94429 -8.28727e-19 0)
(0.944364 -8.22222e-19 0)
(0.944436 -8.15776e-19 0)
(0.944507 -8.0939e-19 0)
(0.944576 -8.03063e-19 0)
(0.944644 -7.96771e-19 0)
(0.94471 -7.90516e-19 0)
(0.944774 -7.843e-19 0)
(0.944838 -7.78121e-19 0)
(0.944899 -7.71992e-19 0)
(0.944959 -7.65912e-19 0)
(0.945018 -7.5988e-19 0)
(0.945075 -7.53895e-19 0)
(0.94513 -7.47958e-19 0)
(0.945184 -7.42066e-19 0)
(0.945237 -7.3622e-19 0)
(0.945288 -7.30418e-19 0)
(0.945337 -7.2466e-19 0)
(0.945386 -7.18946e-19 0)
(0.945432 -7.13274e-19 0)
(0.945477 -7.07645e-19 0)
(0.945521 -7.02056e-19 0)
(0.945563 -6.96509e-19 0)
(0.945604 -6.91001e-19 0)
(0.945643 -6.85533e-19 0)
(0.945681 -6.80104e-19 0)
(0.945717 -6.74713e-19 0)
(0.945752 -6.6936e-19 0)
(0.945785 -6.64044e-19 0)
(0.945817 -6.58764e-19 0)
(0.945847 -6.53521e-19 0)
(0.945876 -6.48313e-19 0)
(0.945904 -6.43141e-19 0)
(0.94593 -6.38003e-19 0)
(0.945955 -6.32898e-19 0)
(0.945978 -6.27828e-19 0)
(0.945999 -6.22791e-19 0)
(0.94602 -6.17786e-19 0)
(0.946038 -6.12813e-19 0)
(0.946056 -6.07872e-19 0)
(0.946072 -6.02962e-19 0)
(0.946086 -5.98086e-19 0)
(0.946099 -5.93243e-19 0)
(0.946111 -5.88434e-19 0)
(0.946121 -5.83658e-19 0)
(0.946129 -5.78915e-19 0)
(0.946137 -5.74203e-19 0)
(0.946142 -5.69522e-19 0)
(0.946147 -5.64873e-19 0)
(0.94615 -5.60255e-19 0)
(0.946151 -5.55667e-19 0)
(0.946151 -5.51109e-19 0)
(0.94615 -5.46581e-19 0)
(0.946147 -5.42083e-19 0)
(0.946142 -5.37615e-19 0)
(0.946137 -5.33176e-19 0)
(0.946129 -5.28764e-19 0)
(0.946121 -5.24381e-19 0)
(0.946111 -5.20024e-19 0)
(0.946099 -5.15694e-19 0)
(0.946086 -5.1139e-19 0)
(0.946072 -5.07116e-19 0)
(0.946056 -5.02866e-19 0)
(0.946038 -4.98646e-19 0)
(0.94602 -4.94453e-19 0)
(0.945999 -4.90289e-19 0)
(0.945978 -4.86152e-19 0)
(0.945955 -4.82042e-19 0)
(0.94593 -4.7796e-19 0)
(0.945904 -4.73904e-19 0)
(0.945876 -4.69875e-19 0)
(0.945847 -4.65873e-19 0)
(0.945817 -4.61896e-19 0)
(0.945785 -4.57946e-19 0)
(0.945752 -4.54015e-19 0)
(0.945717 -4.50104e-19 0)
(0.945681 -4.46212e-19 0)
(0.945643 -4.42339e-19 0)
(0.945604 -4.38495e-19 0)
(0.945563 -4.3468e-19 0)
(0.945521 -4.30892e-19 0)
(0.945477 -4.27133e-19 0)
(0.945432 -4.23391e-19 0)
(0.945386 -4.19666e-19 0)
(0.945337 -4.15958e-19 0)
(0.945288 -4.12266e-19 0)
(0.945237 -4.08602e-19 0)
(0.945184 -4.04963e-19 0)
(0.94513 -4.0135e-19 0)
(0.945075 -3.97763e-19 0)
(0.945018 -3.9419e-19 0)
(0.944959 -3.90632e-19 0)
(0.944899 -3.87088e-19 0)
(0.944838 -3.8357e-19 0)
(0.944774 -3.80076e-19 0)
(0.94471 -3.76608e-19 0)
(0.944644 -3.73165e-19 0)
(0.944576 -3.69748e-19 0)
(0.944507 -3.66356e-19 0)
(0.944436 -3.6299e-19 0)
(0.944364 -3.59649e-19 0)
(0.94429 -3.56333e-19 0)
(0.944215 -3.53042e-19 0)
(0.944138 -3.49776e-19 0)
(0.94406 -3.46534e-19 0)
(0.94398 -3.43316e-19 0)
(0.943898 -3.40123e-19 0)
(0.943815 -3.36954e-19 0)
(0.943731 -3.33809e-19 0)
(0.943644 -3.30687e-19 0)
(0.943557 -3.27589e-19 0)
(0.943467 -3.24514e-19 0)
(0.943376 -3.21463e-19 0)
(0.943284 -3.18434e-19 0)
(0.94319 -3.15429e-19 0)
(0.943094 -3.12446e-19 0)
(0.942997 -3.09486e-19 0)
(0.942898 -3.06548e-19 0)
(0.942797 -3.03633e-19 0)
(0.942695 -3.0074e-19 0)
(0.942591 -2.97868e-19 0)
(0.942486 -2.95019e-19 0)
(0.942379 -2.92192e-19 0)
(0.94227 -2.89386e-19 0)
(0.94216 -2.86601e-19 0)
(0.942048 -2.83838e-19 0)
(0.941935 -2.81097e-19 0)
(0.94182 -2.78376e-19 0)
(0.941703 -2.75676e-19 0)
(0.941584 -2.72997e-19 0)
(0.941464 -2.70339e-19 0)
(0.941342 -2.67701e-19 0)
(0.941219 -2.65084e-19 0)
(0.941093 -2.62487e-19 0)
(0.940966 -2.59911e-19 0)
(0.940838 -2.57354e-19 0)
(0.940708 -2.54818e-19 0)
(0.940576 -2.52301e-19 0)
(0.940442 -2.49804e-19 0)
(0.940306 -2.47327e-19 0)
(0.940169 -2.4487e-19 0)
(0.94003 -2.42431e-19 0)
(0.93989 -2.40013e-19 0)
(0.939747 -2.37613e-19 0)
(0.939603 -2.35232e-19 0)
(0.939457 -2.32871e-19 0)
(0.93931 -2.30528e-19 0)
(0.93916 -2.28204e-19 0)
(0.939009 -2.25899e-19 0)
(0.938856 -2.23612e-19 0)
(0.938702 -2.21344e-19 0)
(0.938545 -2.19094e-19 0)
(0.938387 -2.16862e-19 0)
(0.938227 -2.14648e-19 0)
(0.938065 -2.12453e-19 0)
(0.937902 -2.10275e-19 0)
(0.937736 -2.08116e-19 0)
(0.937569 -2.05974e-19 0)
(0.9374 -2.0385e-19 0)
(0.937229 -2.01743e-19 0)
(0.937056 -1.99654e-19 0)
(0.936882 -1.97582e-19 0)
(0.936705 -1.95527e-19 0)
(0.936527 -1.9349e-19 0)
(0.936347 -1.91469e-19 0)
(0.936165 -1.89466e-19 0)
(0.935981 -1.87479e-19 0)
(0.935795 -1.85509e-19 0)
(0.935608 -1.83556e-19 0)
(0.935418 -1.8162e-19 0)
(0.935227 -1.797e-19 0)
(0.935033 -1.77796e-19 0)
(0.934838 -1.75909e-19 0)
(0.934641 -1.74038e-19 0)
(0.934442 -1.72183e-19 0)
(0.934241 -1.70344e-19 0)
(0.934038 -1.68521e-19 0)
(0.933833 -1.66714e-19 0)
(0.933627 -1.64923e-19 0)
(0.933418 -1.63147e-19 0)
(0.933207 -1.61387e-19 0)
(0.932995 -1.59643e-19 0)
(0.93278 -1.57914e-19 0)
(0.932564 -1.562e-19 0)
(0.932345 -1.54501e-19 0)
(0.932125 -1.52818e-19 0)
(0.931902 -1.5115e-19 0)
(0.931678 -1.49496e-19 0)
(0.931452 -1.47858e-19 0)
(0.931223 -1.46234e-19 0)
(0.930993 -1.44625e-19 0)
(0.93076 -1.43031e-19 0)
(0.930526 -1.41451e-19 0)
(0.93029 -1.39886e-19 0)
(0.930051 -1.38335e-19 0)
(0.929811 -1.36798e-19 0)
(0.929568 -1.35275e-19 0)
(0.929324 -1.33767e-19 0)
(0.929077 -1.32272e-19 0)
(0.928828 -1.30792e-19 0)
(0.928578 -1.29325e-19 0)
(0.928325 -1.27872e-19 0)
(0.92807 -1.26433e-19 0)
(0.927813 -1.25007e-19 0)
(0.927554 -1.23595e-19 0)
(0.927293 -1.22196e-19 0)
(0.92703 -1.2081e-19 0)
(0.926765 -1.19438e-19 0)
(0.926498 -1.18079e-19 0)
(0.926228 -1.16733e-19 0)
(0.925957 -1.154e-19 0)
(0.925683 -1.14079e-19 0)
(0.925407 -1.12772e-19 0)
(0.92513 -1.11477e-19 0)
(0.92485 -1.10195e-19 0)
(0.924568 -1.08926e-19 0)
(0.924283 -1.07669e-19 0)
(0.923997 -1.06424e-19 0)
(0.923709 -1.05192e-19 0)
(0.923418 -1.03972e-19 0)
(0.923125 -1.02764e-19 0)
(0.92283 -1.01568e-19 0)
(0.922533 -1.00384e-19 0)
(0.922234 -9.92121e-20 0)
(0.921933 -9.80518e-20 0)
(0.921629 -9.69033e-20 0)
(0.921323 -9.57664e-20 0)
(0.921015 -9.4641e-20 0)
(0.920705 -9.35271e-20 0)
(0.920393 -9.24246e-20 0)
(0.920079 -9.13334e-20 0)
(0.919762 -9.02534e-20 0)
(0.919443 -8.91846e-20 0)
(0.919122 -8.81268e-20 0)
(0.918799 -8.708e-20 0)
(0.918473 -8.6044e-20 0)
(0.918146 -8.50189e-20 0)
(0.917816 -8.40045e-20 0)
(0.917484 -8.30007e-20 0)
(0.917149 -8.20076e-20 0)
(0.916813 -8.10248e-20 0)
(0.916474 -8.00525e-20 0)
(0.916133 -7.90905e-20 0)
(0.915789 -7.81388e-20 0)
(0.915444 -7.71972e-20 0)
(0.915096 -7.62657e-20 0)
(0.914746 -7.53442e-20 0)
(0.914394 -7.44326e-20 0)
(0.914039 -7.35308e-20 0)
(0.913682 -7.26388e-20 0)
(0.913323 -7.17565e-20 0)
(0.912961 -7.08838e-20 0)
(0.912598 -7.00206e-20 0)
(0.912232 -6.91668e-20 0)
(0.911863 -6.83224e-20 0)
(0.911493 -6.74873e-20 0)
(0.91112 -6.66614e-20 0)
(0.910745 -6.58446e-20 0)
(0.910367 -6.50369e-20 0)
(0.909987 -6.42382e-20 0)
(0.909605 -6.34483e-20 0)
(0.909221 -6.26673e-20 0)
(0.908834 -6.1895e-20 0)
(0.908445 -6.11314e-20 0)
(0.908053 -6.03763e-20 0)
(0.907659 -5.96298e-20 0)
(0.907263 -5.88918e-20 0)
(0.906865 -5.8162e-20 0)
(0.906464 -5.74406e-20 0)
(0.906061 -5.67274e-20 0)
(0.905655 -5.60224e-20 0)
(0.905247 -5.53254e-20 0)
(0.904836 -5.46364e-20 0)
(0.904424 -5.39553e-20 0)
(0.904008 -5.3282e-20 0)
(0.903591 -5.26166e-20 0)
(0.903171 -5.19588e-20 0)
(0.902748 -5.13087e-20 0)
(0.902323 -5.06661e-20 0)
(0.901896 -5.0031e-20 0)
(0.901466 -4.94034e-20 0)
(0.901034 -4.8783e-20 0)
(0.900599 -4.817e-20 0)
(0.900162 -4.75641e-20 0)
(0.899723 -4.69654e-20 0)
(0.89928 -4.63737e-20 0)
(0.898836 -4.57891e-20 0)
(0.898389 -4.52113e-20 0)
(0.897939 -4.46405e-20 0)
(0.897487 -4.40764e-20 0)
(0.897033 -4.3519e-20 0)
(0.896576 -4.29683e-20 0)
(0.896116 -4.24242e-20 0)
(0.895654 -4.18866e-20 0)
(0.895189 -4.13555e-20 0)
(0.894722 -4.08307e-20 0)
(0.894252 -4.03123e-20 0)
(0.893779 -3.98002e-20 0)
(0.893304 -3.92942e-20 0)
(0.892827 -3.87944e-20 0)
(0.892347 -3.83006e-20 0)
(0.891864 -3.78129e-20 0)
(0.891378 -3.73311e-20 0)
(0.89089 -3.68551e-20 0)
(0.890399 -3.6385e-20 0)
(0.889906 -3.59207e-20 0)
(0.88941 -3.5462e-20 0)
(0.888911 -3.5009e-20 0)
(0.888409 -3.45616e-20 0)
(0.887905 -3.41197e-20 0)
(0.887398 -3.36832e-20 0)
(0.886888 -3.32521e-20 0)
(0.886376 -3.28264e-20 0)
(0.88586 -3.2406e-20 0)
(0.885342 -3.19908e-20 0)
(0.884822 -3.15807e-20 0)
(0.884298 -3.11758e-20 0)
(0.883771 -3.07759e-20 0)
(0.883242 -3.0381e-20 0)
(0.88271 -2.99911e-20 0)
(0.882175 -2.96061e-20 0)
(0.881637 -2.92258e-20 0)
(0.881096 -2.88504e-20 0)
(0.880552 -2.84797e-20 0)
(0.880006 -2.81137e-20 0)
(0.879456 -2.77523e-20 0)
(0.878904 -2.73955e-20 0)
(0.878348 -2.70431e-20 0)
(0.877789 -2.66953e-20 0)
(0.877228 -2.63518e-20 0)
(0.876663 -2.60128e-20 0)
(0.876095 -2.5678e-20 0)
(0.875525 -2.53475e-20 0)
(0.874951 -2.50213e-20 0)
(0.874374 -2.46992e-20 0)
(0.873794 -2.43812e-20 0)
(0.87321 -2.40673e-20 0)
(0.872624 -2.37574e-20 0)
(0.872034 -2.34515e-20 0)
(0.871441 -2.31495e-20 0)
(0.870845 -2.28514e-20 0)
(0.870246 -2.25571e-20 0)
(0.869643 -2.22667e-20 0)
(0.869037 -2.198e-20 0)
(0.868428 -2.1697e-20 0)
(0.867815 -2.14176e-20 0)
(0.867199 -2.11419e-20 0)
(0.86658 -2.08698e-20 0)
(0.865957 -2.06012e-20 0)
(0.86533 -2.0336e-20 0)
(0.8647 -2.00744e-20 0)
(0.864067 -1.98161e-20 0)
(0.86343 -1.95612e-20 0)
(0.86279 -1.93097e-20 0)
(0.862146 -1.90614e-20 0)
(0.861498 -1.88164e-20 0)
(0.860847 -1.85745e-20 0)
(0.860192 -1.83359e-20 0)
(0.859533 -1.81004e-20 0)
(0.85887 -1.78679e-20 0)
(0.858204 -1.76386e-20 0)
(0.857534 -1.74122e-20 0)
(0.85686 -1.71888e-20 0)
(0.856182 -1.69684e-20 0)
(0.855501 -1.67509e-20 0)
(0.854815 -1.65363e-20 0)
(0.854126 -1.63245e-20 0)
(0.853432 -1.61155e-20 0)
(0.852735 -1.59093e-20 0)
(0.852033 -1.57058e-20 0)
(0.851328 -1.5505e-20 0)
(0.850618 -1.53069e-20 0)
(0.849904 -1.51114e-20 0)
(0.849185 -1.49185e-20 0)
(0.848463 -1.47282e-20 0)
(0.847736 -1.45405e-20 0)
(0.847005 -1.43552e-20 0)
(0.84627 -1.41724e-20 0)
(0.84553 -1.39921e-20 0)
(0.844785 -1.38142e-20 0)
(0.844037 -1.36386e-20 0)
(0.843283 -1.34655e-20 0)
(0.842525 -1.32946e-20 0)
(0.841763 -1.31261e-20 0)
(0.840996 -1.29598e-20 0)
(0.840224 -1.27958e-20 0)
(0.839447 -1.26339e-20 0)
(0.838666 -1.24743e-20 0)
(0.837879 -1.23168e-20 0)
(0.837088 -1.21615e-20 0)
(0.836292 -1.20082e-20 0)
(0.835491 -1.1857e-20 0)
(0.834684 -1.17079e-20 0)
(0.833873 -1.15608e-20 0)
(0.833056 -1.14158e-20 0)
(0.832235 -1.12726e-20 0)
(0.831408 -1.11315e-20 0)
(0.830575 -1.09922e-20 0)
(0.829738 -1.08549e-20 0)
(0.828895 -1.07194e-20 0)
(0.828046 -1.05858e-20 0)
(0.827192 -1.04541e-20 0)
(0.826332 -1.03241e-20 0)
(0.825466 -1.01959e-20 0)
(0.824595 -1.00695e-20 0)
(0.823718 -9.94484e-21 0)
(0.822835 -9.82188e-21 0)
(0.821946 -9.70061e-21 0)
(0.821051 -9.58103e-21 0)
(0.82015 -9.46309e-21 0)
(0.819243 -9.34679e-21 0)
(0.81833 -9.2321e-21 0)
(0.81741 -9.119e-21 0)
(0.816484 -9.00747e-21 0)
(0.815552 -8.89749e-21 0)
(0.814613 -8.78905e-21 0)
(0.813667 -8.68211e-21 0)
(0.812715 -8.57667e-21 0)
(0.811756 -8.4727e-21 0)
(0.81079 -8.37019e-21 0)
(0.809817 -8.26911e-21 0)
(0.808837 -8.16945e-21 0)
(0.80785 -8.07119e-21 0)
(0.806855 -7.97431e-21 0)
(0.805854 -7.8788e-21 0)
(0.804845 -7.78463e-21 0)
(0.803828 -7.69179e-21 0)
(0.802804 -7.60027e-21 0)
(0.801772 -7.51004e-21 0)
(0.800732 -7.42108e-21 0)
(0.799685 -7.3334e-21 0)
(0.798629 -7.24695e-21 0)
(0.797565 -7.16174e-21 0)
(0.796493 -7.07774e-21 0)
(0.795413 -6.99494e-21 0)
(0.794323 -6.91332e-21 0)
(0.793226 -6.83287e-21 0)
(0.792119 -6.75358e-21 0)
(0.791004 -6.67542e-21 0)
(0.789879 -6.59838e-21 0)
(0.788746 -6.52245e-21 0)
(0.787603 -6.44762e-21 0)
(0.78645 -6.37386e-21 0)
(0.785288 -6.30117e-21 0)
(0.784117 -6.22953e-21 0)
(0.782935 -6.15893e-21 0)
(0.781743 -6.08935e-21 0)
(0.780541 -6.02078e-21 0)
(0.779328 -5.95321e-21 0)
(0.778105 -5.88663e-21 0)
(0.776871 -5.82101e-21 0)
(0.775626 -5.75635e-21 0)
(0.77437 -5.69264e-21 0)
(0.773102 -5.62986e-21 0)
(0.771823 -5.568e-21 0)
(0.770532 -5.50704e-21 0)
(0.769229 -5.44698e-21 0)
(0.767913 -5.38781e-21 0)
(0.766586 -5.3295e-21 0)
(0.765245 -5.27205e-21 0)
(0.763891 -5.21545e-21 0)
(0.762525 -5.15969e-21 0)
(0.761144 -5.10475e-21 0)
(0.75975 -5.05062e-21 0)
(0.758342 -4.99729e-21 0)
(0.756919 -4.94475e-21 0)
(0.755482 -4.89299e-21 0)
(0.75403 -4.842e-21 0)
(0.752562 -4.79176e-21 0)
(0.751079 -4.74227e-21 0)
(0.74958 -4.69351e-21 0)
(0.748064 -4.64547e-21 0)
(0.746532 -4.59815e-21 0)
(0.744982 -4.55152e-21 0)
(0.743415 -4.50559e-21 0)
(0.74183 -4.46034e-21 0)
(0.740227 -4.41575e-21 0)
(0.738604 -4.37183e-21 0)
(0.736962 -4.32855e-21 0)
(0.735301 -4.28591e-21 0)
(0.733618 -4.2439e-21 0)
(0.731915 -4.20251e-21 0)
(0.730191 -4.16172e-21 0)
(0.728444 -4.12152e-21 0)
(0.726674 -4.08191e-21 0)
(0.724881 -4.04288e-21 0)
(0.723064 -4.00441e-21 0)
(0.721222 -3.96649e-21 0)
(0.719355 -3.92911e-21 0)
(0.717461 -3.89227e-21 0)
(0.71554 -3.85595e-21 0)
(0.713591 -3.82013e-21 0)
(0.711613 -3.78482e-21 0)
(0.709606 -3.74999e-21 0)
(0.707567 -3.71564e-21 0)
(0.705496 -3.68175e-21 0)
(0.703392 -3.64832e-21 0)
(0.701254 -3.61533e-21 0)
(0.69908 -3.58277e-21 0)
(0.69687 -3.55062e-21 0)
(0.694621 -3.51888e-21 0)
(0.692332 -3.48753e-21 0)
(0.690002 -3.45656e-21 0)
(0.687629 -3.42596e-21 0)
(0.685211 -3.3957e-21 0)
(0.682746 -3.36578e-21 0)
(0.680232 -3.33619e-21 0)
(0.677667 -3.3069e-21 0)
(0.675049 -3.2779e-21 0)
(0.672375 -3.24917e-21 0)
(0.669642 -3.2207e-21 0)
(0.666848 -3.19246e-21 0)
(0.66399 -3.16445e-21 0)
(0.661063 -3.13663e-21 0)
(0.658064 -3.10898e-21 0)
(0.65499 -3.08149e-21 0)
(0.651836 -3.05413e-21 0)
(0.648597 -3.02688e-21 0)
(0.645269 -2.9997e-21 0)
(0.641844 -2.97256e-21 0)
(0.638319 -2.94544e-21 0)
(0.634684 -2.91829e-21 0)
(0.630934 -2.89108e-21 0)
(0.62706 -2.86378e-21 0)
(0.623052 -2.83632e-21 0)
(0.618899 -2.80867e-21 0)
(0.614592 -2.78076e-21 0)
(0.610115 -2.75254e-21 0)
(0.605455 -2.72393e-21 0)
(0.600594 -2.69486e-21 0)
(0.595513 -2.66523e-21 0)
(0.590189 -2.63494e-21 0)
(0.584597 -2.60387e-21 0)
(0.578706 -2.57189e-21 0)
(0.572481 -2.53883e-21 0)
(0.565877 -2.5045e-21 0)
(0.558844 -2.46867e-21 0)
(0.551319 -2.43105e-21 0)
(0.543223 -2.39131e-21 0)
(0.534459 -2.34901e-21 0)
(0.524901 -2.3036e-21 0)
(0.514384 -2.25435e-21 0)
(0.502687 -2.20029e-21 0)
(0.489502 -2.14008e-21 0)
(0.474387 -2.07177e-21 0)
(0.456667 -1.99243e-21 0)
(0.435251 -1.89731e-21 0)
(0.408211 -1.77799e-21 0)
(0.371695 -1.61772e-21 0)
(0.316555 -1.37673e-21 0)
(0.219776 -9.55108e-22 0)
)
;

boundaryField
{
    top_wall
    {
        type            noSlip;
    }
    inlet
    {
        type            cyclic;
    }
    bot_wall
    {
        type            noSlip;
    }
    outlet
    {
        type            cyclic;
    }
    frontAndBack
    {
        type            empty;
    }
}


// ************************************************************************* //
