# Wall shear stress
# Time          	patch           	min             	max             
0.5             	top_wall	(-2.69969831e-03 1.90462859e-30 0.00000000e+00)	(-2.69969831e-03 1.90462859e-30 0.00000000e+00)
0.5             	bot_wall	(-2.69969661e-03 3.86561021e-21 0.00000000e+00)	(-2.69969661e-03 3.86561021e-21 0.00000000e+00)
1               	top_wall	(-2.43952564e-03 -2.85678449e-29 0.00000000e+00)	(-2.43952564e-03 -2.85678449e-29 0.00000000e+00)
1               	bot_wall	(-2.43952404e-03 1.52421022e-20 0.00000000e+00)	(-2.43952404e-03 1.52421022e-20 0.00000000e+00)
1.5             	top_wall	(-2.29637354e-03 -1.13554732e-28 0.00000000e+00)	(-2.29637354e-03 -1.13554732e-28 0.00000000e+00)
1.5             	bot_wall	(-2.29637257e-03 2.56687541e-20 0.00000000e+00)	(-2.29637257e-03 2.56687541e-20 0.00000000e+00)
2               	top_wall	(-2.20003113e-03 -1.14986191e-28 0.00000000e+00)	(-2.20003113e-03 -1.14986191e-28 0.00000000e+00)
2               	bot_wall	(-2.20003075e-03 4.93031606e-20 0.00000000e+00)	(-2.20003075e-03 4.93031606e-20 0.00000000e+00)
2.5             	top_wall	(-2.12890364e-03 -3.60302579e-28 0.00000000e+00)	(-2.12890364e-03 -3.60302579e-28 0.00000000e+00)
2.5             	bot_wall	(-2.12890367e-03 3.52764840e-20 0.00000000e+00)	(-2.12890367e-03 3.52764840e-20 0.00000000e+00)
3               	top_wall	(-2.07350200e-03 -2.66367512e-28 0.00000000e+00)	(-2.07350200e-03 -2.66367512e-28 0.00000000e+00)
3               	bot_wall	(-2.07350228e-03 4.46663344e-20 0.00000000e+00)	(-2.07350228e-03 4.46663344e-20 0.00000000e+00)
3.5             	top_wall	(-2.02881424e-03 -2.62270468e-28 0.00000000e+00)	(-2.02881424e-03 -2.62270468e-28 0.00000000e+00)
3.5             	bot_wall	(-2.02881463e-03 2.69441426e-20 0.00000000e+00)	(-2.02881463e-03 2.69441426e-20 0.00000000e+00)
4               	top_wall	(-1.99187194e-03 -3.40977464e-28 0.00000000e+00)	(-1.99187194e-03 -3.40977464e-28 0.00000000e+00)
4               	bot_wall	(-1.99187238e-03 1.28536711e-20 0.00000000e+00)	(-1.99187238e-03 1.28536711e-20 0.00000000e+00)
4.5             	top_wall	(-1.96077331e-03 -3.29167548e-28 0.00000000e+00)	(-1.96077331e-03 -3.29167548e-28 0.00000000e+00)
4.5             	bot_wall	(-1.96077375e-03 3.43177256e-20 0.00000000e+00)	(-1.96077375e-03 3.43177256e-20 0.00000000e+00)
5               	top_wall	(-1.93422784e-03 -3.26091131e-28 0.00000000e+00)	(-1.93422784e-03 -3.26091131e-28 0.00000000e+00)
5               	bot_wall	(-1.93422827e-03 4.05194992e-20 0.00000000e+00)	(-1.93422827e-03 4.05194992e-20 0.00000000e+00)
5.5             	top_wall	(-1.91132067e-03 1.77348883e-28 0.00000000e+00)	(-1.91132067e-03 1.77348883e-28 0.00000000e+00)
5.5             	bot_wall	(-1.91132106e-03 5.29711016e-20 0.00000000e+00)	(-1.91132106e-03 5.29711016e-20 0.00000000e+00)
6               	top_wall	(-1.89138061e-03 2.00942033e-27 0.00000000e+00)	(-1.89138061e-03 2.00942033e-27 0.00000000e+00)
6               	bot_wall	(-1.89138096e-03 3.24899114e-20 0.00000000e+00)	(-1.89138096e-03 3.24899114e-20 0.00000000e+00)
6.5             	top_wall	(-1.87390107e-03 7.63885167e-27 0.00000000e+00)	(-1.87390107e-03 7.63885167e-27 0.00000000e+00)
6.5             	bot_wall	(-1.87390138e-03 4.50513886e-20 0.00000000e+00)	(-1.87390138e-03 4.50513886e-20 0.00000000e+00)
7               	top_wall	(-1.85849104e-03 2.18489991e-26 0.00000000e+00)	(-1.85849104e-03 2.18489991e-26 0.00000000e+00)
7               	bot_wall	(-1.85849132e-03 4.55907200e-20 0.00000000e+00)	(-1.85849132e-03 4.55907200e-20 0.00000000e+00)
7.5             	top_wall	(-1.84484259e-03 5.26713527e-26 0.00000000e+00)	(-1.84484259e-03 5.26713527e-26 0.00000000e+00)
7.5             	bot_wall	(-1.84484284e-03 1.14510303e-20 0.00000000e+00)	(-1.84484284e-03 1.14510303e-20 0.00000000e+00)
8               	top_wall	(-1.83270938e-03 1.11566948e-25 0.00000000e+00)	(-1.83270938e-03 1.11566948e-25 0.00000000e+00)
8               	bot_wall	(-1.83270959e-03 2.64328064e-20 0.00000000e+00)	(-1.83270959e-03 2.64328064e-20 0.00000000e+00)
8.5             	top_wall	(-1.82189128e-03 2.13450850e-25 0.00000000e+00)	(-1.82189128e-03 2.13450850e-25 0.00000000e+00)
8.5             	bot_wall	(-1.82189147e-03 1.51143391e-20 0.00000000e+00)	(-1.82189147e-03 1.51143391e-20 0.00000000e+00)
9               	top_wall	(-1.81222388e-03 3.76323691e-25 0.00000000e+00)	(-1.81222388e-03 3.76323691e-25 0.00000000e+00)
9               	bot_wall	(-1.81222404e-03 2.93053143e-20 0.00000000e+00)	(-1.81222404e-03 2.93053143e-20 0.00000000e+00)
9.5             	top_wall	(-1.80357040e-03 6.20485750e-25 0.00000000e+00)	(-1.80357040e-03 6.20485750e-25 0.00000000e+00)
9.5             	bot_wall	(-1.80357054e-03 1.63713978e-20 0.00000000e+00)	(-1.80357054e-03 1.63713978e-20 0.00000000e+00)
10              	top_wall	(-1.79581615e-03 9.67909533e-25 0.00000000e+00)	(-1.79581615e-03 9.67909533e-25 0.00000000e+00)
10              	bot_wall	(-1.79581628e-03 1.86866598e-20 0.00000000e+00)	(-1.79581628e-03 1.86866598e-20 0.00000000e+00)
10.5            	top_wall	(-1.78886384e-03 1.44331575e-24 0.00000000e+00)	(-1.78886384e-03 1.44331575e-24 0.00000000e+00)
10.5            	bot_wall	(-1.78886396e-03 -9.35712142e-21 0.00000000e+00)	(-1.78886396e-03 -9.35712142e-21 0.00000000e+00)
11              	top_wall	(-1.78263048e-03 2.07475898e-24 0.00000000e+00)	(-1.78263048e-03 2.07475898e-24 0.00000000e+00)
11              	bot_wall	(-1.78263059e-03 8.66296075e-21 0.00000000e+00)	(-1.78263059e-03 8.66296075e-21 0.00000000e+00)
11.5            	top_wall	(-1.77704459e-03 2.89421933e-24 0.00000000e+00)	(-1.77704459e-03 2.89421933e-24 0.00000000e+00)
11.5            	bot_wall	(-1.77704469e-03 4.34429332e-20 0.00000000e+00)	(-1.77704469e-03 4.34429332e-20 0.00000000e+00)
12              	top_wall	(-1.77204419e-03 3.93877773e-24 0.00000000e+00)	(-1.77204419e-03 3.93877773e-24 0.00000000e+00)
12              	bot_wall	(-1.77204429e-03 3.50748829e-20 0.00000000e+00)	(-1.77204429e-03 3.50748829e-20 0.00000000e+00)
12.5            	top_wall	(-1.76757528e-03 5.25123939e-24 0.00000000e+00)	(-1.76757528e-03 5.25123939e-24 0.00000000e+00)
12.5            	bot_wall	(-1.76757538e-03 4.30385652e-20 0.00000000e+00)	(-1.76757538e-03 4.30385652e-20 0.00000000e+00)
13              	top_wall	(-1.76359022e-03 6.87850305e-24 0.00000000e+00)	(-1.76359022e-03 6.87850305e-24 0.00000000e+00)
13              	bot_wall	(-1.76359032e-03 2.07982434e-20 0.00000000e+00)	(-1.76359032e-03 2.07982434e-20 0.00000000e+00)
13.5            	top_wall	(-1.76004712e-03 8.87019008e-24 0.00000000e+00)	(-1.76004712e-03 8.87019008e-24 0.00000000e+00)
13.5            	bot_wall	(-1.76004722e-03 2.57315282e-20 0.00000000e+00)	(-1.76004722e-03 2.57315282e-20 0.00000000e+00)
