/*--------------------------------*- C++ -*----------------------------------*\
| =========                 |                                                 |
| \\      /  F ield         | OpenFOAM: The Open Source CFD Toolbox           |
|  \\    /   O peration     | Version:  2312                                  |
|   \\  /    A nd           | Website:  www.openfoam.com                      |
|    \\/     M anipulation  |                                                 |
\*---------------------------------------------------------------------------*/
FoamFile
{
    version     2.0;
    format      ascii;
    arch        "LSB;label=32;scalar=64";
    class       volScalarField;
    location    "22.525";
    object      k;
}
// * * * * * * * * * * * * * * * * * * * * * * * * * * * * * * * * * * * * * //

dimensions      [0 2 -2 0 0 0 0];

internalField   nonuniform List<scalar> 
1000
(
0.000852627
0.000613687
0.00341161
0.0117878
0.0282532
0.0525866
0.081213
0.109792
0.135637
0.157869
0.176642
0.192428
0.205666
0.216772
0.226117
0.23401
0.24071
0.246424
0.251321
0.255538
0.259184
0.262351
0.265111
0.267525
0.269645
0.271511
0.273158
0.274616
0.275908
0.277052
0.278064
0.278959
0.279748
0.280441
0.281049
0.28158
0.28204
0.282436
0.282773
0.283057
0.283292
0.283483
0.283632
0.283743
0.283819
0.283863
0.283878
0.283864
0.283825
0.283762
0.283676
0.28357
0.283445
0.283302
0.283142
0.282966
0.282776
0.282571
0.282354
0.282125
0.281884
0.281633
0.281371
0.2811
0.28082
0.280532
0.280235
0.279931
0.27962
0.279303
0.278979
0.278649
0.278313
0.277972
0.277626
0.277275
0.276919
0.276559
0.276195
0.275827
0.275456
0.275081
0.274702
0.27432
0.273936
0.273548
0.273157
0.272764
0.272369
0.271971
0.271571
0.271168
0.270764
0.270358
0.269949
0.269539
0.269127
0.268714
0.268299
0.267883
0.267465
0.267045
0.266625
0.266203
0.26578
0.265356
0.264931
0.264504
0.264077
0.263649
0.263219
0.262789
0.262358
0.261927
0.261494
0.261061
0.260627
0.260192
0.259757
0.259321
0.258884
0.258447
0.258009
0.257571
0.257132
0.256692
0.256252
0.255812
0.255371
0.25493
0.254488
0.254046
0.253603
0.25316
0.252717
0.252273
0.251829
0.251385
0.25094
0.250495
0.250049
0.249604
0.249158
0.248711
0.248265
0.247818
0.24737
0.246923
0.246475
0.246027
0.245579
0.24513
0.244682
0.244233
0.243783
0.243334
0.242884
0.242434
0.241984
0.241534
0.241083
0.240632
0.240181
0.239729
0.239277
0.238823
0.238369
0.237913
0.237456
0.236999
0.23654
0.23608
0.235618
0.235156
0.234692
0.234228
0.233762
0.233295
0.232826
0.232357
0.231886
0.231415
0.230942
0.230468
0.229992
0.229516
0.229038
0.228559
0.228079
0.227598
0.227115
0.226632
0.226147
0.225661
0.225173
0.224685
0.224195
0.223704
0.223212
0.222718
0.222224
0.221728
0.22123
0.220732
0.220232
0.219731
0.219229
0.218726
0.218221
0.217715
0.217208
0.216699
0.216189
0.215678
0.215166
0.214652
0.214137
0.213621
0.213103
0.212584
0.212064
0.211542
0.211019
0.210495
0.20997
0.209443
0.208915
0.208386
0.207855
0.207323
0.20679
0.206255
0.205719
0.205182
0.204643
0.204103
0.203562
0.203019
0.202475
0.20193
0.201383
0.200835
0.200286
0.199735
0.199183
0.19863
0.198075
0.197519
0.196962
0.196403
0.195843
0.195282
0.194719
0.194155
0.193589
0.193023
0.192454
0.191885
0.191314
0.190742
0.190169
0.189594
0.189018
0.18844
0.187861
0.187281
0.186699
0.186116
0.185532
0.184946
0.184359
0.183771
0.183181
0.18259
0.181998
0.181404
0.180809
0.180213
0.179615
0.179016
0.178415
0.177814
0.17721
0.176606
0.176
0.175393
0.174784
0.174174
0.173563
0.17295
0.172336
0.171721
0.171104
0.170486
0.169867
0.169246
0.168624
0.168001
0.167376
0.16675
0.166122
0.165493
0.164863
0.164231
0.163598
0.162964
0.162328
0.16169
0.161051
0.16041
0.159767
0.159123
0.158477
0.15783
0.157181
0.15653
0.155878
0.155225
0.15457
0.153915
0.15326
0.152605
0.151951
0.151299
0.150649
0.150003
0.149363
0.148728
0.148101
0.147482
0.146871
0.146266
0.145665
0.145066
0.144467
0.143869
0.143273
0.142677
0.142082
0.141488
0.140895
0.140304
0.139713
0.139124
0.138536
0.137949
0.137363
0.136779
0.136196
0.135614
0.135034
0.134455
0.133878
0.133302
0.132728
0.132155
0.131584
0.131014
0.130446
0.12988
0.129315
0.128752
0.128191
0.127632
0.127074
0.126518
0.125964
0.125412
0.124862
0.124314
0.123767
0.123223
0.122681
0.122141
0.121603
0.121067
0.120533
0.120001
0.119472
0.118944
0.118419
0.117897
0.117376
0.116858
0.116342
0.115829
0.115318
0.11481
0.114304
0.1138
0.113299
0.112801
0.112305
0.111812
0.111322
0.110834
0.110349
0.109866
0.109387
0.10891
0.108436
0.107965
0.107496
0.107031
0.106569
0.106109
0.105653
0.105199
0.104749
0.104302
0.103858
0.103417
0.102979
0.102544
0.102113
0.101685
0.10126
0.100838
0.10042
0.100005
0.0995941
0.0991861
0.0987817
0.0983807
0.0979833
0.0975894
0.0971991
0.0968124
0.0964293
0.09605
0.0956743
0.0953024
0.0949342
0.0945698
0.0942093
0.0938526
0.0934998
0.0931509
0.092806
0.092465
0.0921281
0.0917953
0.0914665
0.091142
0.0908216
0.0905054
0.0901938
0.0898872
0.0895856
0.0892892
0.0889979
0.0887118
0.0884309
0.0881552
0.0878849
0.0876199
0.0873602
0.0871059
0.0868571
0.0866137
0.0863759
0.0861435
0.0859168
0.0856956
0.08548
0.0852701
0.0850659
0.0848674
0.0846746
0.0844876
0.0843064
0.084131
0.0839615
0.0837978
0.08364
0.0834881
0.0833421
0.0832021
0.083068
0.08294
0.0828179
0.0827019
0.0825919
0.0824879
0.08239
0.0822982
0.0822125
0.0821329
0.0820593
0.0819919
0.0819306
0.0818754
0.0818263
0.0817834
0.0817466
0.081716
0.0816915
0.0816731
0.0816608
0.0816547
0.0816547
0.0816608
0.0816731
0.0816915
0.081716
0.0817466
0.0817834
0.0818264
0.0818754
0.0819306
0.0819919
0.0820593
0.0821329
0.0822125
0.0822983
0.0823901
0.082488
0.0825919
0.0827019
0.082818
0.08294
0.0830681
0.0832021
0.0833422
0.0834881
0.08364
0.0837978
0.0839615
0.0841311
0.0843065
0.0844877
0.0846747
0.0848675
0.085066
0.0852702
0.0854801
0.0856957
0.0859168
0.0861436
0.086376
0.0866138
0.0868572
0.087106
0.0873603
0.08762
0.087885
0.0881554
0.088431
0.0887119
0.088998
0.0892893
0.0895857
0.0898873
0.0901939
0.0905055
0.0908217
0.0911421
0.0914667
0.0917954
0.0921282
0.0924652
0.0928061
0.093151
0.0934999
0.0938527
0.0942094
0.09457
0.0949343
0.0953025
0.0956744
0.0960501
0.0964295
0.0968125
0.0971992
0.0975895
0.0979834
0.0983809
0.0987818
0.0991863
0.0995942
0.100006
0.10042
0.100839
0.10126
0.101685
0.102113
0.102544
0.102979
0.103417
0.103858
0.104302
0.104749
0.1052
0.105653
0.106109
0.106569
0.107031
0.107497
0.107965
0.108436
0.10891
0.109387
0.109866
0.110349
0.110834
0.111322
0.111812
0.112305
0.112801
0.1133
0.1138
0.114304
0.11481
0.115318
0.115829
0.116343
0.116858
0.117376
0.117897
0.11842
0.118945
0.119472
0.120001
0.120533
0.121067
0.121603
0.122141
0.122681
0.123223
0.123768
0.124314
0.124862
0.125412
0.125964
0.126518
0.127074
0.127632
0.128191
0.128752
0.129315
0.12988
0.130446
0.131014
0.131584
0.132155
0.132728
0.133302
0.133878
0.134456
0.135034
0.135615
0.136196
0.136779
0.137363
0.137949
0.138536
0.139124
0.139713
0.140304
0.140896
0.141488
0.142082
0.142677
0.143273
0.14387
0.144467
0.145066
0.145665
0.146266
0.146871
0.147482
0.148101
0.148728
0.149363
0.150004
0.150649
0.151299
0.151951
0.152605
0.15326
0.153915
0.15457
0.155225
0.155878
0.15653
0.157181
0.15783
0.158478
0.159123
0.159768
0.16041
0.161051
0.16169
0.162328
0.162964
0.163598
0.164232
0.164863
0.165494
0.166122
0.16675
0.167376
0.168001
0.168624
0.169246
0.169867
0.170486
0.171104
0.171721
0.172336
0.17295
0.173563
0.174174
0.174784
0.175393
0.176
0.176606
0.17721
0.177814
0.178415
0.179016
0.179615
0.180213
0.180809
0.181404
0.181998
0.182591
0.183182
0.183771
0.18436
0.184947
0.185532
0.186116
0.186699
0.187281
0.187861
0.18844
0.189018
0.189594
0.190169
0.190742
0.191314
0.191885
0.192455
0.193023
0.193589
0.194155
0.194719
0.195282
0.195843
0.196403
0.196962
0.197519
0.198075
0.19863
0.199183
0.199735
0.200286
0.200835
0.201383
0.20193
0.202475
0.203019
0.203562
0.204103
0.204643
0.205182
0.205719
0.206255
0.20679
0.207323
0.207855
0.208386
0.208915
0.209443
0.20997
0.210495
0.21102
0.211542
0.212064
0.212584
0.213103
0.213621
0.214137
0.214652
0.215166
0.215678
0.216189
0.216699
0.217208
0.217715
0.218221
0.218726
0.219229
0.219731
0.220232
0.220732
0.221231
0.221728
0.222224
0.222718
0.223212
0.223704
0.224195
0.224685
0.225173
0.225661
0.226147
0.226632
0.227115
0.227598
0.228079
0.228559
0.229038
0.229516
0.229992
0.230468
0.230942
0.231415
0.231886
0.232357
0.232827
0.233295
0.233762
0.234228
0.234692
0.235156
0.235618
0.23608
0.23654
0.236999
0.237456
0.237913
0.238369
0.238823
0.239277
0.239729
0.240181
0.240632
0.241083
0.241534
0.241984
0.242434
0.242884
0.243334
0.243783
0.244233
0.244682
0.24513
0.245579
0.246027
0.246475
0.246923
0.24737
0.247818
0.248265
0.248711
0.249158
0.249604
0.250049
0.250495
0.25094
0.251385
0.251829
0.252273
0.252717
0.25316
0.253603
0.254046
0.254488
0.25493
0.255371
0.255812
0.256252
0.256692
0.257132
0.257571
0.258009
0.258447
0.258884
0.259321
0.259757
0.260192
0.260627
0.261061
0.261494
0.261927
0.262358
0.262789
0.263219
0.263649
0.264077
0.264504
0.264931
0.265356
0.26578
0.266203
0.266625
0.267045
0.267465
0.267883
0.268299
0.268714
0.269127
0.269539
0.269949
0.270357
0.270764
0.271168
0.271571
0.271971
0.272369
0.272764
0.273157
0.273548
0.273936
0.27432
0.274702
0.275081
0.275456
0.275827
0.276195
0.276559
0.276919
0.277275
0.277626
0.277972
0.278313
0.278649
0.278979
0.279303
0.27962
0.279931
0.280235
0.280532
0.28082
0.2811
0.281371
0.281632
0.281884
0.282125
0.282354
0.282571
0.282775
0.282966
0.283142
0.283302
0.283445
0.28357
0.283676
0.283762
0.283825
0.283864
0.283878
0.283863
0.283819
0.283743
0.283632
0.283483
0.283292
0.283057
0.282773
0.282436
0.28204
0.28158
0.281049
0.280441
0.279748
0.278959
0.278064
0.277052
0.275908
0.274616
0.273158
0.271511
0.269645
0.267525
0.265111
0.262351
0.259184
0.255538
0.251321
0.246424
0.24071
0.23401
0.226117
0.216772
0.205665
0.192428
0.176642
0.157869
0.135637
0.109792
0.081213
0.0525865
0.0282532
0.0117878
0.00341161
0.000613687
0.000852627
)
;

boundaryField
{
    top_wall
    {
        type            kLowReWallFunction;
        value           uniform 2.4191e-08;
    }
    inlet
    {
        type            cyclic;
    }
    bot_wall
    {
        type            kLowReWallFunction;
        value           uniform 2.41911e-08;
    }
    outlet
    {
        type            cyclic;
    }
    frontAndBack
    {
        type            empty;
    }
}


// ************************************************************************* //
