/*--------------------------------*- C++ -*----------------------------------*\
| =========                 |                                                 |
| \\      /  F ield         | OpenFOAM: The Open Source CFD Toolbox           |
|  \\    /   O peration     | Version:  2312                                  |
|   \\  /    A nd           | Website:  www.openfoam.com                      |
|    \\/     M anipulation  |                                                 |
\*---------------------------------------------------------------------------*/
FoamFile
{
    version     2.0;
    format      ascii;
    arch        "LSB;label=32;scalar=64";
    class       volScalarField;
    location    "22.525";
    object      nut;
}
// * * * * * * * * * * * * * * * * * * * * * * * * * * * * * * * * * * * * * //

dimensions      [0 2 -1 0 0 0 0];

internalField   nonuniform List<scalar> 
1000
(
4.39678e-10
1.83194e-09
2.95375e-08
2.06542e-07
8.05244e-07
2.12103e-06
4.25611e-06
7.10036e-06
1.04728e-05
1.41374e-05
1.79198e-05
2.1937e-05
2.61777e-05
3.06127e-05
3.52125e-05
3.99489e-05
4.48024e-05
4.97549e-05
5.47913e-05
5.98988e-05
6.50673e-05
7.02884e-05
7.55545e-05
8.08566e-05
8.61801e-05
9.14944e-05
9.67325e-05
0.000101882
0.000107033
0.000112184
0.000117332
0.000122477
0.000127616
0.000132748
0.000137872
0.000142987
0.000148092
0.000153185
0.000158267
0.000163337
0.000168393
0.000173435
0.000178463
0.000183477
0.000188474
0.000193456
0.000198422
0.000203371
0.000208304
0.000213219
0.000218116
0.000222996
0.000227858
0.000232701
0.000237526
0.000242331
0.000247118
0.000251886
0.000256634
0.000261363
0.000266072
0.000270761
0.00027543
0.000280078
0.000284707
0.000289315
0.000293902
0.000298469
0.000303015
0.000307539
0.000312043
0.000316526
0.000320987
0.000325427
0.000329846
0.000334243
0.000338618
0.000342971
0.000347303
0.000351613
0.000355901
0.000360167
0.000364411
0.000368632
0.000372832
0.000377009
0.000381163
0.000385296
0.000389405
0.000393492
0.000397557
0.000401598
0.000405617
0.000409614
0.000413587
0.000417537
0.000421465
0.000425369
0.00042925
0.000433108
0.000436943
0.000440755
0.000444544
0.000448309
0.000452051
0.000455769
0.000459464
0.000463136
0.000466783
0.000470408
0.000474009
0.000477586
0.000481139
0.000484669
0.000488175
0.000491657
0.000495116
0.00049855
0.000501961
0.000505348
0.000508711
0.00051205
0.000515365
0.000518655
0.000521922
0.000525165
0.000528384
0.000531578
0.000534749
0.000537895
0.000541017
0.000544115
0.000547188
0.000550238
0.000553263
0.000556264
0.00055924
0.000562192
0.00056512
0.000568024
0.000570903
0.000573757
0.000576588
0.000579394
0.000582175
0.000584932
0.000587665
0.000590373
0.000593057
0.000595717
0.000598352
0.000600962
0.000603548
0.000606109
0.000608646
0.000611159
0.000613647
0.000616111
0.00061855
0.000620964
0.000623355
0.00062572
0.000627703
0.000629381
0.000630872
0.000632249
0.000633561
0.000634843
0.000636116
0.000637392
0.00063868
0.000639983
0.000641302
0.000642636
0.000643982
0.00064534
0.000646705
0.000648075
0.000649447
0.000650819
0.000652189
0.000653553
0.00065491
0.000656259
0.000657598
0.000658925
0.000660239
0.00066154
0.000662825
0.000664095
0.000665349
0.000666587
0.000667807
0.000669009
0.000670194
0.00067136
0.000672508
0.000673637
0.000674748
0.00067584
0.000676913
0.000677967
0.000679002
0.000680019
0.000681016
0.000681995
0.000682954
0.000683896
0.000684818
0.000685722
0.000686607
0.000687474
0.000688323
0.000689153
0.000689965
0.000690759
0.000691536
0.000692294
0.000693035
0.000693759
0.000694465
0.000695153
0.000695824
0.000696479
0.000697116
0.000697736
0.00069834
0.000698927
0.000699497
0.000700052
0.000700589
0.000701111
0.000701616
0.000702106
0.00070258
0.000703038
0.00070348
0.000703907
0.000704318
0.000704714
0.000705095
0.000705461
0.000705811
0.000706147
0.000706468
0.000706774
0.000707066
0.000707343
0.000707606
0.000707854
0.000708089
0.000708309
0.000708515
0.000708707
0.000708885
0.00070905
0.000709201
0.000709338
0.000709462
0.000709572
0.000709669
0.000709753
0.000709823
0.000709881
0.000709925
0.000709957
0.000709975
0.000709981
0.000709975
0.000709955
0.000709923
0.000709879
0.000709822
0.000709754
0.000709672
0.000709579
0.000709474
0.000709357
0.000709228
0.000709087
0.000708934
0.00070877
0.000708595
0.000708408
0.00070821
0.000708001
0.000707781
0.00070755
0.000707308
0.000707055
0.000706792
0.000706518
0.000706233
0.000705937
0.00070563
0.000705311
0.000704979
0.000704633
0.000704272
0.000703894
0.000703496
0.000703076
0.00070263
0.000702154
0.000701642
0.000701089
0.000700491
0.00069984
0.000699132
0.000698364
0.000697535
0.000696649
0.000695714
0.000694748
0.000693776
0.000692835
0.000691976
0.00069127
0.000690805
0.000690694
0.000691075
0.000692108
0.000693978
0.000696887
0.000701034
0.000706597
0.000713681
0.000722252
0.000732027
0.000742319
0.000751853
0.00075854
0.00075931
0.000758892
0.00075846
0.000758014
0.000757553
0.000757077
0.000756587
0.000756082
0.000755563
0.000755029
0.00075448
0.000753917
0.00075334
0.000752749
0.000752143
0.000751524
0.000750891
0.000750244
0.000749584
0.00074891
0.000748224
0.000747524
0.000746812
0.000746087
0.00074535
0.000744601
0.00074384
0.000743067
0.000742283
0.000741488
0.000740683
0.000739866
0.00073904
0.000738203
0.000737357
0.000736501
0.000735636
0.000734762
0.00073388
0.000732989
0.000732091
0.000731185
0.000730271
0.000729351
0.000728424
0.000727491
0.000726551
0.000725606
0.000724655
0.0007237
0.000722739
0.000721775
0.000720806
0.000719833
0.000718857
0.000717878
0.000716897
0.000715913
0.000714927
0.000713939
0.00071295
0.000711961
0.00071097
0.000709979
0.000708988
0.000707998
0.000707009
0.00070602
0.000705033
0.000704048
0.000703065
0.000702084
0.000701107
0.000700132
0.000699161
0.000698194
0.000697232
0.000696274
0.000695321
0.000694373
0.000693431
0.000692494
0.000691565
0.000690642
0.000689725
0.000688817
0.000687916
0.000687023
0.000686139
0.000685263
0.000684396
0.000683539
0.000682692
0.000681855
0.000681028
0.000680212
0.000679408
0.000678615
0.000677833
0.000677064
0.000676307
0.000675563
0.000674832
0.000674115
0.000673411
0.000672721
0.000672045
0.000671384
0.000670738
0.000670106
0.00066949
0.000668889
0.000668304
0.000667735
0.000667177
0.000666625
0.00066608
0.000665542
0.00066501
0.000664484
0.000663966
0.000663455
0.000662952
0.000662456
0.000661968
0.000661488
0.000661016
0.000660552
0.000660096
0.000659649
0.000659211
0.000658782
0.000658362
0.000657951
0.000657549
0.000657158
0.000656775
0.000656403
0.000656041
0.000655689
0.000655347
0.000655016
0.000654695
0.000654385
0.000654086
0.000653798
0.000653522
0.000653256
0.000653002
0.00065276
0.000652529
0.000652311
0.000652104
0.000651909
0.000651727
0.000651556
0.000651399
0.000651254
0.000651121
0.000651001
0.000650895
0.000650801
0.00065072
0.000650653
0.000650598
0.000650558
0.00065053
0.000650517
0.000650517
0.00065053
0.000650558
0.000650598
0.000650653
0.00065072
0.000650801
0.000650895
0.000651001
0.000651121
0.000651254
0.000651399
0.000651556
0.000651727
0.000651909
0.000652104
0.000652311
0.00065253
0.00065276
0.000653003
0.000653256
0.000653522
0.000653799
0.000654086
0.000654385
0.000654695
0.000655016
0.000655347
0.000655689
0.000656041
0.000656403
0.000656776
0.000657158
0.00065755
0.000657951
0.000658362
0.000658782
0.000659211
0.00065965
0.000660097
0.000660552
0.000661016
0.000661488
0.000661968
0.000662457
0.000662952
0.000663456
0.000663967
0.000664485
0.00066501
0.000665542
0.000666081
0.000666626
0.000667177
0.000667735
0.000668305
0.00066889
0.000669491
0.000670107
0.000670738
0.000671385
0.000672046
0.000672721
0.000673411
0.000674115
0.000674833
0.000675564
0.000676308
0.000677064
0.000677834
0.000678615
0.000679408
0.000680213
0.000681029
0.000681856
0.000682693
0.00068354
0.000684397
0.000685264
0.000686139
0.000687024
0.000687917
0.000688817
0.000689726
0.000690642
0.000691565
0.000692495
0.000693431
0.000694373
0.000695321
0.000696274
0.000697233
0.000698195
0.000699162
0.000700133
0.000701107
0.000702085
0.000703066
0.000704049
0.000705034
0.000706021
0.000707009
0.000707999
0.000708989
0.00070998
0.000710971
0.000711961
0.000712951
0.00071394
0.000714928
0.000715914
0.000716898
0.000717879
0.000718858
0.000719834
0.000720807
0.000721775
0.00072274
0.0007237
0.000724656
0.000725607
0.000726552
0.000727491
0.000728425
0.000729352
0.000730272
0.000731186
0.000732092
0.00073299
0.000733881
0.000734763
0.000735637
0.000736502
0.000737357
0.000738204
0.00073904
0.000739867
0.000740683
0.000741489
0.000742284
0.000743068
0.000743841
0.000744602
0.000745351
0.000746088
0.000746813
0.000747525
0.000748224
0.000748911
0.000749585
0.000750245
0.000750892
0.000751525
0.000752144
0.00075275
0.000753341
0.000753918
0.000754481
0.000755029
0.000755563
0.000756083
0.000756588
0.000757078
0.000757554
0.000758015
0.000758461
0.000758893
0.00075931
0.000758538
0.000751849
0.000742315
0.000732023
0.000722249
0.000713678
0.000706595
0.000701032
0.000696886
0.000693978
0.000692108
0.000691075
0.000690695
0.000690806
0.000691271
0.000691977
0.000692835
0.000693777
0.000694749
0.000695715
0.00069665
0.000697536
0.000698365
0.000699133
0.000699841
0.000700491
0.00070109
0.000701643
0.000702154
0.000702631
0.000703077
0.000703497
0.000703895
0.000704273
0.000704634
0.00070498
0.000705312
0.000705631
0.000705938
0.000706234
0.000706519
0.000706793
0.000707056
0.000707309
0.00070755
0.000707781
0.000708002
0.000708211
0.000708409
0.000708595
0.000708771
0.000708935
0.000709087
0.000709228
0.000709357
0.000709475
0.00070958
0.000709673
0.000709754
0.000709823
0.00070988
0.000709924
0.000709956
0.000709975
0.000709982
0.000709976
0.000709957
0.000709926
0.000709881
0.000709824
0.000709753
0.000709669
0.000709572
0.000709462
0.000709338
0.000709201
0.00070905
0.000708886
0.000708708
0.000708515
0.000708309
0.000708089
0.000707855
0.000707607
0.000707344
0.000707067
0.000706775
0.000706469
0.000706148
0.000705812
0.000705461
0.000705095
0.000704715
0.000704318
0.000703907
0.00070348
0.000703038
0.00070258
0.000702106
0.000701617
0.000701111
0.00070059
0.000700052
0.000699498
0.000698928
0.000698341
0.000697737
0.000697116
0.000696479
0.000695825
0.000695154
0.000694465
0.000693759
0.000693036
0.000692295
0.000691536
0.00069076
0.000689966
0.000689153
0.000688323
0.000687474
0.000686607
0.000685722
0.000684818
0.000683896
0.000682955
0.000681995
0.000681016
0.000680019
0.000679003
0.000677967
0.000676913
0.00067584
0.000674748
0.000673638
0.000672508
0.00067136
0.000670194
0.00066901
0.000667807
0.000666587
0.00066535
0.000664096
0.000662826
0.00066154
0.00066024
0.000658925
0.000657598
0.00065626
0.000654911
0.000653553
0.000652189
0.00065082
0.000649447
0.000648075
0.000646705
0.00064534
0.000643983
0.000642636
0.000641302
0.000639984
0.000638681
0.000637393
0.000636116
0.000634844
0.000633562
0.000632249
0.000630872
0.000629382
0.000627703
0.00062572
0.000623355
0.000620965
0.00061855
0.000616111
0.000613647
0.000611159
0.000608647
0.00060611
0.000603548
0.000600962
0.000598352
0.000595717
0.000593057
0.000590374
0.000587665
0.000584933
0.000582175
0.000579394
0.000576588
0.000573758
0.000570903
0.000568024
0.00056512
0.000562192
0.00055924
0.000556264
0.000553263
0.000550238
0.000547188
0.000544115
0.000541017
0.000537895
0.000534749
0.000531578
0.000528384
0.000525165
0.000521922
0.000518656
0.000515365
0.00051205
0.000508711
0.000505348
0.000501961
0.00049855
0.000495116
0.000491657
0.000488175
0.000484669
0.000481139
0.000477586
0.000474009
0.000470408
0.000466784
0.000463136
0.000459464
0.000455769
0.000452051
0.000448309
0.000444544
0.000440755
0.000436943
0.000433108
0.00042925
0.000425369
0.000421465
0.000417537
0.000413587
0.000409614
0.000405617
0.000401599
0.000397557
0.000393492
0.000389405
0.000385296
0.000381163
0.000377009
0.000372832
0.000368632
0.000364411
0.000360167
0.000355901
0.000351613
0.000347303
0.000342971
0.000338618
0.000334243
0.000329846
0.000325427
0.000320987
0.000316526
0.000312043
0.000307539
0.000303015
0.000298469
0.000293902
0.000289315
0.000284707
0.000280078
0.00027543
0.000270761
0.000266072
0.000261363
0.000256634
0.000251886
0.000247118
0.000242331
0.000237526
0.000232701
0.000227858
0.000222996
0.000218116
0.000213219
0.000208304
0.000203371
0.000198422
0.000193456
0.000188474
0.000183477
0.000178463
0.000173435
0.000168393
0.000163337
0.000158267
0.000153185
0.000148092
0.000142987
0.000137872
0.000132748
0.000127616
0.000122477
0.000117332
0.000112184
0.000107033
0.000101882
9.67325e-05
9.14944e-05
8.61801e-05
8.08566e-05
7.55545e-05
7.02884e-05
6.50673e-05
5.98988e-05
5.47913e-05
4.97549e-05
4.48024e-05
3.99489e-05
3.52125e-05
3.06127e-05
2.61777e-05
2.1937e-05
1.79198e-05
1.41374e-05
1.04728e-05
7.10035e-06
4.25611e-06
2.12103e-06
8.05244e-07
2.06542e-07
2.95375e-08
1.83194e-09
4.39678e-10
)
;

boundaryField
{
    top_wall
    {
        type            nutLowReWallFunction;
        value           uniform 0;
    }
    inlet
    {
        type            cyclic;
    }
    bot_wall
    {
        type            nutLowReWallFunction;
        value           uniform 0;
    }
    outlet
    {
        type            cyclic;
    }
    frontAndBack
    {
        type            empty;
    }
}


// ************************************************************************* //
