/*--------------------------------*- C++ -*----------------------------------*\
| =========                 |                                                 |
| \\      /  F ield         | OpenFOAM: The Open Source CFD Toolbox           |
|  \\    /   O peration     | Version:  2312                                  |
|   \\  /    A nd           | Website:  www.openfoam.com                      |
|    \\/     M anipulation  |                                                 |
\*---------------------------------------------------------------------------*/
FoamFile
{
    version     2.0;
    format      ascii;
    arch        "LSB;label=32;scalar=64";
    class       volScalarField;
    location    "27.535";
    object      k;
}
// * * * * * * * * * * * * * * * * * * * * * * * * * * * * * * * * * * * * * //

dimensions      [0 2 -2 0 0 0 0];

internalField   nonuniform List<scalar> 
2000
(
0.00240812
0.00258342
0.00323803
0.00390235
0.00444754
0.00487611
0.00521416
0.00548481
0.00570507
0.00588704
0.00603937
0.00616833
0.00627855
0.00637354
0.00645597
0.00652791
0.00659103
0.00664663
0.00669578
0.00673935
0.00677806
0.00681252
0.00684323
0.00687061
0.00689503
0.0069168
0.00693619
0.00695343
0.00696873
0.00698227
0.00699419
0.00700465
0.00701376
0.00702163
0.00702835
0.00703403
0.00703873
0.00704252
0.00704547
0.00704764
0.00704908
0.00704983
0.00704994
0.00704945
0.0070484
0.00704681
0.00704473
0.00704217
0.00703917
0.00703575
0.00703193
0.00702772
0.00702316
0.00701826
0.00701304
0.0070075
0.00700167
0.00699556
0.00698918
0.00698254
0.00697566
0.00696855
0.00696121
0.00695365
0.00694589
0.00693792
0.00692977
0.00692144
0.00691292
0.00690424
0.0068954
0.00688639
0.00687724
0.00686794
0.0068585
0.00684892
0.00683921
0.00682937
0.00681941
0.00680933
0.00679914
0.00678883
0.00677842
0.0067679
0.00675728
0.00674656
0.00673575
0.00672484
0.00671385
0.00670277
0.00669161
0.00668036
0.00666904
0.00665763
0.00664616
0.00663461
0.00662299
0.0066113
0.00659955
0.00658773
0.00657585
0.00656391
0.00655191
0.00653986
0.00652774
0.00651558
0.00650336
0.00649109
0.00647877
0.0064664
0.00645399
0.00644153
0.00642903
0.00641648
0.0064039
0.00639127
0.00637861
0.0063659
0.00635316
0.00634039
0.00632758
0.00631474
0.00630187
0.00628897
0.00627603
0.00626307
0.00625008
0.00623707
0.00622402
0.00621096
0.00619787
0.00618475
0.00617162
0.00615846
0.00614529
0.00613209
0.00611888
0.00610565
0.0060924
0.00607914
0.00606586
0.00605257
0.00603926
0.00602594
0.00601261
0.00599927
0.00598592
0.00597256
0.00595919
0.00594582
0.00593243
0.00591904
0.00590564
0.00589224
0.00587884
0.00586543
0.00585202
0.0058386
0.00582519
0.00581177
0.00579836
0.00578494
0.00577153
0.00575811
0.0057447
0.0057313
0.00571789
0.0057045
0.0056911
0.00567771
0.00566433
0.00565096
0.00563759
0.00562423
0.00561088
0.00559754
0.00558421
0.00557089
0.00555758
0.00554428
0.005531
0.00551773
0.00550447
0.00549122
0.00547799
0.00546477
0.00545157
0.00543839
0.00542522
0.00541207
0.00539894
0.00538583
0.00537273
0.00535966
0.0053466
0.00533356
0.00532055
0.00530755
0.00529458
0.00528163
0.00526871
0.0052558
0.00524292
0.00523007
0.00521723
0.00520443
0.00519165
0.00517889
0.00516617
0.00515347
0.00514079
0.00512815
0.00511553
0.00510294
0.00509038
0.00507785
0.00506535
0.00505288
0.00504044
0.00502803
0.00501566
0.00500331
0.004991
0.00497872
0.00496647
0.00495426
0.00494208
0.00492994
0.00491783
0.00490575
0.00489371
0.00488171
0.00486974
0.00485781
0.00484591
0.00483405
0.00482223
0.00481045
0.0047987
0.00478699
0.00477532
0.00476369
0.0047521
0.00474055
0.00472904
0.00471756
0.00470613
0.00469474
0.00468339
0.00467208
0.00466081
0.00464958
0.00463839
0.00462725
0.00461615
0.00460509
0.00459407
0.0045831
0.00457217
0.00456128
0.00455044
0.00453964
0.00452888
0.00451817
0.0045075
0.00449688
0.0044863
0.00447576
0.00446527
0.00445483
0.00444443
0.00443408
0.00442377
0.00441351
0.00440329
0.00439312
0.00438299
0.00437291
0.00436288
0.0043529
0.00434296
0.00433306
0.00432322
0.00431342
0.00430367
0.00429396
0.0042843
0.00427469
0.00426513
0.00425561
0.00424614
0.00423672
0.00422734
0.00421801
0.00420873
0.0041995
0.00419032
0.00418118
0.00417209
0.00416304
0.00415405
0.0041451
0.0041362
0.00412735
0.00411855
0.00410979
0.00410108
0.00409242
0.00408381
0.00407524
0.00406672
0.00405825
0.00404983
0.00404145
0.00403312
0.00402484
0.00401661
0.00400842
0.00400028
0.00399219
0.00398414
0.00397614
0.00396819
0.00396029
0.00395243
0.00394462
0.00393686
0.00392914
0.00392147
0.00391384
0.00390626
0.00389873
0.00389124
0.0038838
0.00387641
0.00386906
0.00386176
0.0038545
0.00384729
0.00384012
0.003833
0.00382593
0.0038189
0.00381191
0.00380497
0.00379807
0.00379122
0.00378441
0.00377765
0.00377093
0.00376425
0.00375762
0.00375103
0.00374448
0.00373798
0.00373152
0.00372511
0.00371873
0.0037124
0.00370612
0.00369987
0.00369367
0.00368751
0.00368139
0.00367531
0.00366927
0.00366328
0.00365733
0.00365142
0.00364554
0.00363971
0.00363392
0.00362817
0.00362246
0.00361679
0.00361116
0.00360557
0.00360002
0.00359451
0.00358904
0.00358361
0.00357821
0.00357286
0.00356754
0.00356226
0.00355702
0.00355181
0.00354665
0.00354152
0.00353643
0.00353137
0.00352636
0.00352137
0.00351643
0.00351152
0.00350665
0.00350181
0.00349701
0.00349225
0.00348752
0.00348283
0.00347817
0.00347354
0.00346895
0.0034644
0.00345988
0.00345539
0.00345093
0.00344651
0.00344213
0.00343777
0.00343345
0.00342917
0.00342491
0.00342069
0.0034165
0.00341234
0.00340822
0.00340412
0.00340006
0.00339603
0.00339203
0.00338806
0.00338412
0.00338021
0.00337634
0.00337249
0.00336867
0.00336488
0.00336113
0.0033574
0.0033537
0.00335003
0.00334639
0.00334278
0.00333919
0.00333564
0.00333211
0.00332861
0.00332514
0.00332169
0.00331828
0.00331489
0.00331153
0.00330819
0.00330489
0.0033016
0.00329835
0.00329512
0.00329192
0.00328874
0.00328559
0.00328246
0.00327936
0.00327629
0.00327324
0.00327021
0.00326721
0.00326424
0.00326128
0.00325836
0.00325545
0.00325257
0.00324972
0.00324689
0.00324408
0.00324129
0.00323853
0.00323579
0.00323307
0.00323038
0.0032277
0.00322505
0.00322243
0.00321982
0.00321724
0.00321467
0.00321213
0.00320961
0.00320711
0.00320464
0.00320218
0.00319975
0.00319733
0.00319494
0.00319256
0.00319021
0.00318787
0.00318556
0.00318326
0.00318099
0.00317873
0.00317649
0.00317428
0.00317208
0.0031699
0.00316774
0.0031656
0.00316347
0.00316137
0.00315928
0.00315721
0.00315516
0.00315312
0.00315111
0.00314911
0.00314713
0.00314517
0.00314322
0.00314129
0.00313938
0.00313748
0.0031356
0.00313374
0.00313189
0.00313006
0.00312825
0.00312645
0.00312467
0.0031229
0.00312115
0.00311941
0.00311769
0.00311599
0.0031143
0.00311262
0.00311097
0.00310932
0.00310769
0.00310607
0.00310447
0.00310289
0.00310132
0.00309976
0.00309821
0.00309668
0.00309517
0.00309366
0.00309218
0.0030907
0.00308924
0.00308779
0.00308635
0.00308493
0.00308352
0.00308212
0.00308074
0.00307937
0.00307801
0.00307667
0.00307533
0.00307401
0.0030727
0.0030714
0.00307012
0.00306885
0.00306758
0.00306633
0.0030651
0.00306387
0.00306265
0.00306145
0.00306026
0.00305908
0.00305791
0.00305675
0.0030556
0.00305446
0.00305334
0.00305222
0.00305111
0.00305002
0.00304893
0.00304786
0.00304679
0.00304574
0.0030447
0.00304366
0.00304264
0.00304162
0.00304062
0.00303962
0.00303864
0.00303766
0.00303669
0.00303574
0.00303479
0.00303385
0.00303292
0.003032
0.00303109
0.00303018
0.00302929
0.0030284
0.00302753
0.00302666
0.0030258
0.00302495
0.0030241
0.00302327
0.00302244
0.00302163
0.00302081
0.00302001
0.00301922
0.00301843
0.00301765
0.00301688
0.00301612
0.00301536
0.00301461
0.00301387
0.00301314
0.00301241
0.0030117
0.00301098
0.00301028
0.00300958
0.00300889
0.00300821
0.00300753
0.00300686
0.0030062
0.00300555
0.0030049
0.00300425
0.00300362
0.00300299
0.00300237
0.00300175
0.00300114
0.00300053
0.00299994
0.00299935
0.00299876
0.00299818
0.00299761
0.00299704
0.00299648
0.00299592
0.00299537
0.00299483
0.00299429
0.00299376
0.00299323
0.00299271
0.00299219
0.00299168
0.00299117
0.00299067
0.00299018
0.00298969
0.0029892
0.00298872
0.00298825
0.00298778
0.00298732
0.00298686
0.0029864
0.00298595
0.00298551
0.00298507
0.00298463
0.0029842
0.00298378
0.00298335
0.00298294
0.00298253
0.00298212
0.00298171
0.00298132
0.00298092
0.00298053
0.00298014
0.00297976
0.00297938
0.00297901
0.00297864
0.00297828
0.00297791
0.00297756
0.0029772
0.00297685
0.00297651
0.00297617
0.00297583
0.00297549
0.00297516
0.00297484
0.00297451
0.00297419
0.00297388
0.00297357
0.00297326
0.00297295
0.00297265
0.00297235
0.00297206
0.00297176
0.00297147
0.00297119
0.00297091
0.00297063
0.00297035
0.00297008
0.00296981
0.00296954
0.00296928
0.00296902
0.00296876
0.00296851
0.00296826
0.00296801
0.00296776
0.00296752
0.00296728
0.00296704
0.00296681
0.00296658
0.00296635
0.00296612
0.0029659
0.00296568
0.00296546
0.00296524
0.00296503
0.00296482
0.00296461
0.0029644
0.0029642
0.002964
0.0029638
0.0029636
0.00296341
0.00296322
0.00296303
0.00296284
0.00296266
0.00296247
0.00296229
0.00296211
0.00296194
0.00296176
0.00296159
0.00296142
0.00296125
0.00296109
0.00296092
0.00296076
0.0029606
0.00296044
0.00296029
0.00296013
0.00295998
0.00295983
0.00295968
0.00295954
0.00295939
0.00295925
0.00295911
0.00295897
0.00295883
0.00295869
0.00295856
0.00295843
0.00295829
0.00295817
0.00295804
0.00295791
0.00295779
0.00295766
0.00295754
0.00295742
0.0029573
0.00295719
0.00295707
0.00295696
0.00295684
0.00295673
0.00295662
0.00295651
0.00295641
0.0029563
0.0029562
0.00295609
0.00295599
0.00295589
0.00295579
0.00295569
0.0029556
0.0029555
0.00295541
0.00295531
0.00295522
0.00295513
0.00295504
0.00295495
0.00295487
0.00295478
0.0029547
0.00295461
0.00295453
0.00295445
0.00295437
0.00295429
0.00295421
0.00295413
0.00295406
0.00295398
0.00295391
0.00295383
0.00295376
0.00295369
0.00295362
0.00295355
0.00295348
0.00295341
0.00295335
0.00295328
0.00295322
0.00295315
0.00295309
0.00295303
0.00295296
0.0029529
0.00295284
0.00295278
0.00295273
0.00295267
0.00295261
0.00295256
0.0029525
0.00295245
0.00295239
0.00295234
0.00295229
0.00295224
0.00295219
0.00295214
0.00295209
0.00295204
0.00295199
0.00295194
0.00295189
0.00295185
0.0029518
0.00295176
0.00295171
0.00295167
0.00295163
0.00295159
0.00295154
0.0029515
0.00295146
0.00295142
0.00295138
0.00295134
0.00295131
0.00295127
0.00295123
0.00295119
0.00295116
0.00295112
0.00295109
0.00295105
0.00295102
0.00295099
0.00295095
0.00295092
0.00295089
0.00295086
0.00295082
0.00295079
0.00295076
0.00295073
0.0029507
0.00295068
0.00295065
0.00295062
0.00295059
0.00295056
0.00295054
0.00295051
0.00295048
0.00295046
0.00295043
0.00295041
0.00295038
0.00295036
0.00295034
0.00295031
0.00295029
0.00295027
0.00295024
0.00295022
0.0029502
0.00295018
0.00295016
0.00295014
0.00295012
0.0029501
0.00295008
0.00295006
0.00295004
0.00295002
0.00295
0.00294998
0.00294997
0.00294995
0.00294993
0.00294991
0.0029499
0.00294988
0.00294987
0.00294985
0.00294983
0.00294982
0.0029498
0.00294979
0.00294977
0.00294976
0.00294975
0.00294973
0.00294972
0.00294971
0.00294969
0.00294968
0.00294967
0.00294965
0.00294964
0.00294963
0.00294962
0.00294961
0.0029496
0.00294959
0.00294957
0.00294956
0.00294955
0.00294954
0.00294953
0.00294952
0.00294951
0.00294951
0.0029495
0.00294949
0.00294948
0.00294947
0.00294946
0.00294945
0.00294945
0.00294944
0.00294943
0.00294942
0.00294942
0.00294941
0.0029494
0.00294939
0.00294939
0.00294938
0.00294938
0.00294937
0.00294936
0.00294936
0.00294935
0.00294935
0.00294934
0.00294934
0.00294933
0.00294933
0.00294932
0.00294932
0.00294931
0.00294931
0.00294931
0.0029493
0.0029493
0.00294929
0.00294929
0.00294929
0.00294928
0.00294928
0.00294928
0.00294928
0.00294927
0.00294927
0.00294927
0.00294927
0.00294927
0.00294926
0.00294926
0.00294926
0.00294926
0.00294926
0.00294926
0.00294926
0.00294926
0.00294926
0.00294926
0.00294925
0.00294925
0.00294925
0.00294926
0.00294926
0.00294926
0.00294926
0.00294926
0.00294926
0.00294926
0.00294926
0.00294926
0.00294926
0.00294926
0.00294927
0.00294927
0.00294927
0.00294927
0.00294927
0.00294928
0.00294928
0.00294928
0.00294929
0.00294929
0.00294929
0.00294929
0.0029493
0.0029493
0.00294931
0.00294931
0.00294931
0.00294932
0.00294932
0.00294933
0.00294933
0.00294934
0.00294934
0.00294935
0.00294935
0.00294936
0.00294936
0.00294937
0.00294938
0.00294938
0.00294939
0.0029494
0.0029494
0.00294941
0.00294942
0.00294942
0.00294943
0.00294944
0.00294945
0.00294945
0.00294946
0.00294947
0.00294948
0.00294949
0.0029495
0.00294951
0.00294952
0.00294952
0.00294953
0.00294954
0.00294955
0.00294957
0.00294958
0.00294959
0.0029496
0.00294961
0.00294962
0.00294963
0.00294964
0.00294966
0.00294967
0.00294968
0.00294969
0.00294971
0.00294972
0.00294973
0.00294975
0.00294976
0.00294978
0.00294979
0.0029498
0.00294982
0.00294984
0.00294985
0.00294987
0.00294988
0.0029499
0.00294992
0.00294993
0.00294995
0.00294997
0.00294999
0.00295
0.00295002
0.00295004
0.00295006
0.00295008
0.0029501
0.00295012
0.00295014
0.00295016
0.00295018
0.0029502
0.00295022
0.00295025
0.00295027
0.00295029
0.00295031
0.00295034
0.00295036
0.00295039
0.00295041
0.00295043
0.00295046
0.00295049
0.00295051
0.00295054
0.00295056
0.00295059
0.00295062
0.00295065
0.00295068
0.00295071
0.00295073
0.00295076
0.0029508
0.00295083
0.00295086
0.00295089
0.00295092
0.00295095
0.00295099
0.00295102
0.00295105
0.00295109
0.00295112
0.00295116
0.0029512
0.00295123
0.00295127
0.00295131
0.00295135
0.00295138
0.00295142
0.00295146
0.0029515
0.00295155
0.00295159
0.00295163
0.00295167
0.00295172
0.00295176
0.00295181
0.00295185
0.0029519
0.00295194
0.00295199
0.00295204
0.00295209
0.00295214
0.00295219
0.00295224
0.00295229
0.00295234
0.00295239
0.00295245
0.0029525
0.00295256
0.00295261
0.00295267
0.00295273
0.00295279
0.00295285
0.00295291
0.00295297
0.00295303
0.00295309
0.00295315
0.00295322
0.00295328
0.00295335
0.00295342
0.00295348
0.00295355
0.00295362
0.00295369
0.00295376
0.00295384
0.00295391
0.00295398
0.00295406
0.00295413
0.00295421
0.00295429
0.00295437
0.00295445
0.00295453
0.00295461
0.0029547
0.00295478
0.00295487
0.00295496
0.00295504
0.00295513
0.00295522
0.00295532
0.00295541
0.0029555
0.0029556
0.0029557
0.00295579
0.00295589
0.00295599
0.00295609
0.0029562
0.0029563
0.00295641
0.00295652
0.00295662
0.00295673
0.00295684
0.00295696
0.00295707
0.00295719
0.0029573
0.00295742
0.00295754
0.00295766
0.00295779
0.00295791
0.00295804
0.00295817
0.0029583
0.00295843
0.00295856
0.0029587
0.00295883
0.00295897
0.00295911
0.00295925
0.00295939
0.00295954
0.00295969
0.00295983
0.00295998
0.00296014
0.00296029
0.00296045
0.0029606
0.00296076
0.00296093
0.00296109
0.00296126
0.00296142
0.00296159
0.00296177
0.00296194
0.00296212
0.00296229
0.00296248
0.00296266
0.00296284
0.00296303
0.00296322
0.00296341
0.00296361
0.0029638
0.002964
0.0029642
0.00296441
0.00296461
0.00296482
0.00296503
0.00296524
0.00296546
0.00296568
0.0029659
0.00296612
0.00296635
0.00296658
0.00296681
0.00296705
0.00296728
0.00296752
0.00296777
0.00296801
0.00296826
0.00296851
0.00296877
0.00296902
0.00296928
0.00296955
0.00296981
0.00297008
0.00297036
0.00297063
0.00297091
0.00297119
0.00297148
0.00297177
0.00297206
0.00297235
0.00297265
0.00297295
0.00297326
0.00297357
0.00297388
0.0029742
0.00297452
0.00297484
0.00297517
0.0029755
0.00297583
0.00297617
0.00297651
0.00297686
0.00297721
0.00297756
0.00297792
0.00297828
0.00297864
0.00297901
0.00297939
0.00297977
0.00298015
0.00298053
0.00298092
0.00298132
0.00298172
0.00298212
0.00298253
0.00298294
0.00298336
0.00298378
0.00298421
0.00298464
0.00298507
0.00298551
0.00298596
0.00298641
0.00298686
0.00298732
0.00298778
0.00298825
0.00298873
0.00298921
0.00298969
0.00299018
0.00299068
0.00299118
0.00299168
0.00299219
0.00299271
0.00299323
0.00299376
0.00299429
0.00299483
0.00299537
0.00299592
0.00299648
0.00299704
0.00299761
0.00299818
0.00299876
0.00299935
0.00299994
0.00300054
0.00300114
0.00300175
0.00300237
0.00300299
0.00300362
0.00300426
0.0030049
0.00300555
0.00300621
0.00300687
0.00300754
0.00300821
0.0030089
0.00300959
0.00301028
0.00301099
0.0030117
0.00301242
0.00301314
0.00301388
0.00301462
0.00301537
0.00301612
0.00301689
0.00301766
0.00301844
0.00301922
0.00302002
0.00302082
0.00302163
0.00302245
0.00302327
0.00302411
0.00302495
0.0030258
0.00302666
0.00302753
0.00302841
0.00302929
0.00303019
0.00303109
0.003032
0.00303292
0.00303385
0.00303479
0.00303574
0.0030367
0.00303767
0.00303864
0.00303963
0.00304062
0.00304163
0.00304264
0.00304367
0.0030447
0.00304574
0.0030468
0.00304786
0.00304894
0.00305002
0.00305112
0.00305222
0.00305334
0.00305447
0.0030556
0.00305675
0.00305791
0.00305908
0.00306026
0.00306146
0.00306266
0.00306387
0.0030651
0.00306634
0.00306759
0.00306885
0.00307012
0.00307141
0.00307271
0.00307401
0.00307534
0.00307667
0.00307802
0.00307937
0.00308075
0.00308213
0.00308353
0.00308494
0.00308636
0.00308779
0.00308924
0.0030907
0.00309218
0.00309367
0.00309517
0.00309669
0.00309822
0.00309976
0.00310132
0.00310289
0.00310448
0.00310608
0.00310769
0.00310932
0.00311097
0.00311263
0.0031143
0.00311599
0.0031177
0.00311942
0.00312115
0.0031229
0.00312467
0.00312645
0.00312825
0.00313007
0.0031319
0.00313374
0.00313561
0.00313748
0.00313938
0.00314129
0.00314322
0.00314517
0.00314713
0.00314912
0.00315111
0.00315313
0.00315516
0.00315721
0.00315928
0.00316137
0.00316348
0.0031656
0.00316774
0.0031699
0.00317208
0.00317428
0.0031765
0.00317874
0.00318099
0.00318327
0.00318556
0.00318788
0.00319021
0.00319257
0.00319494
0.00319733
0.00319975
0.00320219
0.00320464
0.00320712
0.00320962
0.00321214
0.00321468
0.00321724
0.00321983
0.00322243
0.00322506
0.00322771
0.00323038
0.00323308
0.00323579
0.00323853
0.0032413
0.00324408
0.00324689
0.00324972
0.00325258
0.00325546
0.00325836
0.00326129
0.00326424
0.00326722
0.00327022
0.00327324
0.00327629
0.00327937
0.00328247
0.00328559
0.00328874
0.00329192
0.00329512
0.00329835
0.00330161
0.00330489
0.0033082
0.00331153
0.00331489
0.00331828
0.0033217
0.00332514
0.00332861
0.00333211
0.00333564
0.0033392
0.00334278
0.00334639
0.00335003
0.0033537
0.0033574
0.00336113
0.00336489
0.00336868
0.00337249
0.00337634
0.00338022
0.00338413
0.00338806
0.00339203
0.00339603
0.00340006
0.00340413
0.00340822
0.00341235
0.0034165
0.00342069
0.00342492
0.00342917
0.00343346
0.00343778
0.00344213
0.00344652
0.00345094
0.00345539
0.00345988
0.0034644
0.00346896
0.00347355
0.00347817
0.00348283
0.00348752
0.00349225
0.00349702
0.00350182
0.00350665
0.00351153
0.00351643
0.00352138
0.00352636
0.00353138
0.00353643
0.00354152
0.00354665
0.00355182
0.00355702
0.00356226
0.00356754
0.00357286
0.00357822
0.00358361
0.00358904
0.00359452
0.00360003
0.00360558
0.00361117
0.0036168
0.00362247
0.00362818
0.00363393
0.00363972
0.00364555
0.00365142
0.00365733
0.00366328
0.00366928
0.00367531
0.00368139
0.00368751
0.00369367
0.00369988
0.00370612
0.00371241
0.00371874
0.00372511
0.00373153
0.00373799
0.00374449
0.00375103
0.00375762
0.00376425
0.00377093
0.00377765
0.00378441
0.00379122
0.00379807
0.00380497
0.00381191
0.0038189
0.00382593
0.00383301
0.00384013
0.00384729
0.00385451
0.00386176
0.00386907
0.00387641
0.00388381
0.00389125
0.00389873
0.00390627
0.00391385
0.00392147
0.00392914
0.00393686
0.00394462
0.00395243
0.00396029
0.0039682
0.00397615
0.00398415
0.00399219
0.00400028
0.00400842
0.00401661
0.00402484
0.00403313
0.00404145
0.00404983
0.00405825
0.00406673
0.00407524
0.00408381
0.00409242
0.00410109
0.00410979
0.00411855
0.00412736
0.00413621
0.00414511
0.00415405
0.00416305
0.00417209
0.00418118
0.00419032
0.0041995
0.00420874
0.00421802
0.00422734
0.00423672
0.00424614
0.00425561
0.00426513
0.00427469
0.0042843
0.00429396
0.00430367
0.00431342
0.00432322
0.00433307
0.00434296
0.0043529
0.00436289
0.00437292
0.004383
0.00439312
0.00440329
0.00441351
0.00442377
0.00443408
0.00444443
0.00445483
0.00446528
0.00447577
0.0044863
0.00449688
0.0045075
0.00451817
0.00452888
0.00453964
0.00455044
0.00456128
0.00457217
0.0045831
0.00459408
0.00460509
0.00461615
0.00462725
0.0046384
0.00464958
0.00466081
0.00467208
0.00468339
0.00469474
0.00470613
0.00471757
0.00472904
0.00474055
0.0047521
0.00476369
0.00477533
0.00478699
0.0047987
0.00481045
0.00482223
0.00483405
0.00484591
0.00485781
0.00486974
0.00488171
0.00489371
0.00490575
0.00491783
0.00492994
0.00494208
0.00495426
0.00496648
0.00497872
0.004991
0.00500331
0.00501566
0.00502804
0.00504044
0.00505288
0.00506535
0.00507785
0.00509038
0.00510294
0.00511553
0.00512815
0.00514079
0.00515347
0.00516617
0.0051789
0.00519165
0.00520443
0.00521724
0.00523007
0.00524292
0.0052558
0.00526871
0.00528163
0.00529458
0.00530756
0.00532055
0.00533357
0.0053466
0.00535966
0.00537273
0.00538583
0.00539894
0.00541207
0.00542522
0.00543839
0.00545158
0.00546478
0.00547799
0.00549122
0.00550447
0.00551773
0.005531
0.00554428
0.00555758
0.00557089
0.00558421
0.00559754
0.00561088
0.00562423
0.00563759
0.00565096
0.00566433
0.00567772
0.0056911
0.0057045
0.0057179
0.0057313
0.00574471
0.00575812
0.00577153
0.00578494
0.00579836
0.00581177
0.00582519
0.00583861
0.00585202
0.00586543
0.00587884
0.00589225
0.00590565
0.00591904
0.00593243
0.00594582
0.00595919
0.00597256
0.00598592
0.00599927
0.00601261
0.00602594
0.00603926
0.00605257
0.00606586
0.00607914
0.0060924
0.00610565
0.00611888
0.00613209
0.00614529
0.00615846
0.00617162
0.00618476
0.00619787
0.00621096
0.00622402
0.00623707
0.00625008
0.00626307
0.00627603
0.00628897
0.00630187
0.00631474
0.00632758
0.00634039
0.00635317
0.0063659
0.00637861
0.00639127
0.0064039
0.00641648
0.00642903
0.00644153
0.00645399
0.0064664
0.00647877
0.00649109
0.00650336
0.00651558
0.00652774
0.00653986
0.00655191
0.00656391
0.00657585
0.00658773
0.00659955
0.0066113
0.00662299
0.00663461
0.00664616
0.00665764
0.00666904
0.00668036
0.00669161
0.00670277
0.00671385
0.00672485
0.00673575
0.00674656
0.00675728
0.0067679
0.00677842
0.00678883
0.00679914
0.00680933
0.00681941
0.00682937
0.00683921
0.00684892
0.0068585
0.00686794
0.00687724
0.0068864
0.0068954
0.00690424
0.00691293
0.00692144
0.00692977
0.00693793
0.00694589
0.00695365
0.00696121
0.00696855
0.00697566
0.00698255
0.00698918
0.00699556
0.00700167
0.0070075
0.00701304
0.00701826
0.00702317
0.00702773
0.00703193
0.00703575
0.00703917
0.00704217
0.00704473
0.00704681
0.0070484
0.00704945
0.00704994
0.00704983
0.00704908
0.00704764
0.00704547
0.00704252
0.00703873
0.00703403
0.00702836
0.00702163
0.00701376
0.00700465
0.00699419
0.00698227
0.00696873
0.00695343
0.00693619
0.0069168
0.00689503
0.00687061
0.00684323
0.00681252
0.00677807
0.00673935
0.00669578
0.00664663
0.00659103
0.00652792
0.00645597
0.00637354
0.00627855
0.00616833
0.00603937
0.00588704
0.00570507
0.00548481
0.00521416
0.00487611
0.00444754
0.00390235
0.00323803
0.00258342
0.00240812
)
;

boundaryField
{
    top_wall
    {
        type            kLowReWallFunction;
        value           uniform 6.88535e-06;
    }
    inlet
    {
        type            cyclic;
    }
    bot_wall
    {
        type            kLowReWallFunction;
        value           uniform 6.88534e-06;
    }
    outlet
    {
        type            cyclic;
    }
    frontAndBack
    {
        type            empty;
    }
}


// ************************************************************************* //
