/*--------------------------------*- C++ -*----------------------------------*\
| =========                 |                                                 |
| \\      /  F ield         | OpenFOAM: The Open Source CFD Toolbox           |
|  \\    /   O peration     | Version:  2312                                  |
|   \\  /    A nd           | Website:  www.openfoam.com                      |
|    \\/     M anipulation  |                                                 |
\*---------------------------------------------------------------------------*/
FoamFile
{
    version     2.0;
    format      ascii;
    arch        "LSB;label=32;scalar=64";
    class       volScalarField;
    location    "27.535";
    object      nut;
}
// * * * * * * * * * * * * * * * * * * * * * * * * * * * * * * * * * * * * * //

dimensions      [0 2 -1 0 0 0 0];

internalField   nonuniform List<scalar> 
2000
(
5.50979e-06
1.15225e-05
2.48416e-05
4.35983e-05
6.49164e-05
8.71693e-05
0.000109643
0.000132038
0.000154227
0.000176162
0.000197825
0.000219215
0.000240339
0.000261206
0.000281826
0.000302208
0.000322362
0.000342296
0.00036202
0.000381539
0.000400862
0.000419994
0.000438941
0.000457708
0.000476301
0.000494723
0.000512978
0.000531071
0.000549004
0.000566782
0.000584407
0.000601882
0.00061921
0.000636393
0.000653434
0.000670335
0.000687098
0.000703726
0.00072022
0.000736582
0.000752813
0.000768917
0.000784893
0.000800745
0.000816473
0.000832079
0.000847564
0.00086293
0.000878179
0.00089331
0.000908326
0.000923229
0.000938018
0.000952696
0.000967263
0.000981721
0.00099607
0.00101031
0.00102445
0.00103848
0.00105241
0.00106623
0.00107995
0.00109357
0.00110709
0.00112052
0.00113384
0.00114707
0.00116019
0.00117323
0.00118617
0.00119901
0.00121176
0.00122442
0.00123699
0.00124947
0.00126186
0.00127416
0.00128637
0.0012985
0.00131053
0.00132249
0.00133435
0.00134614
0.00135784
0.00136946
0.00138099
0.00139245
0.00140382
0.00141511
0.00142633
0.00143747
0.00144853
0.00145951
0.00147042
0.00148125
0.001492
0.00150269
0.00151329
0.00152383
0.0015343
0.00154469
0.00155501
0.00156526
0.00157545
0.00158556
0.00159561
0.00160559
0.0016155
0.00162535
0.00163513
0.00164484
0.00165449
0.00166408
0.00167361
0.00168307
0.00169247
0.00170181
0.00171109
0.00172031
0.00172947
0.00173858
0.00174762
0.00175661
0.00176554
0.00177441
0.00178323
0.00179199
0.0018007
0.00180936
0.00181796
0.00182651
0.001835
0.00184345
0.00185184
0.00186018
0.00186848
0.00187672
0.00188492
0.00189306
0.00190116
0.00190921
0.00191722
0.00192518
0.00193309
0.00194096
0.00194878
0.00195656
0.0019643
0.001972
0.00197965
0.00198726
0.00199483
0.00200235
0.00200984
0.00201729
0.0020247
0.00203207
0.0020394
0.00204669
0.00205395
0.00206117
0.00206835
0.0020755
0.00208261
0.00208969
0.00209673
0.00210374
0.00211072
0.00211766
0.00212457
0.00213145
0.0021383
0.00214512
0.0021519
0.00215866
0.00216538
0.00217208
0.00217875
0.00218539
0.002192
0.00219859
0.00220514
0.00221167
0.00221818
0.00222466
0.00223111
0.00223754
0.00224395
0.00225033
0.00225668
0.00226302
0.00226933
0.00227562
0.00228188
0.00228813
0.00229435
0.00230056
0.00230674
0.0023129
0.00231904
0.00232517
0.00233127
0.00233736
0.00234343
0.00234948
0.00235551
0.00236152
0.00236752
0.00237351
0.00237947
0.00238542
0.00239136
0.00239728
0.00240318
0.00240907
0.00241495
0.00242081
0.00242666
0.0024325
0.00243832
0.00244413
0.00244993
0.00245572
0.00246149
0.00246726
0.00247301
0.00247875
0.00248448
0.0024902
0.00249591
0.00250161
0.00250731
0.00251299
0.00251866
0.00252432
0.00252998
0.00253563
0.00254127
0.0025469
0.00255252
0.00255814
0.00256375
0.00256935
0.00257494
0.00258053
0.00258611
0.00259169
0.00259726
0.00260282
0.00260838
0.00261393
0.00261948
0.00262502
0.00263056
0.00263609
0.00264162
0.00264714
0.00265266
0.00265817
0.00266368
0.00266919
0.00267469
0.00268019
0.00268568
0.00269117
0.00269666
0.00270214
0.00270762
0.0027131
0.00271857
0.00272404
0.0027295
0.00273497
0.00274043
0.00274589
0.00275134
0.00275679
0.00276224
0.00276769
0.00277313
0.00277857
0.00278401
0.00278945
0.00279488
0.00280031
0.00280574
0.00281117
0.00281659
0.00282201
0.00282743
0.00283284
0.00283825
0.00284366
0.00284907
0.00285447
0.00285987
0.00286527
0.00287067
0.00287606
0.00288145
0.00288684
0.00289222
0.0028976
0.00290298
0.00290835
0.00291372
0.00291909
0.00292445
0.00292981
0.00293517
0.00294052
0.00294587
0.00295121
0.00295655
0.00296189
0.00296722
0.00297255
0.00297787
0.00298319
0.0029885
0.00299381
0.00299911
0.00300441
0.0030097
0.00301499
0.00302027
0.00302554
0.00303081
0.00303607
0.00304133
0.00304658
0.00305183
0.00305706
0.00306229
0.00306752
0.00307274
0.00307794
0.00308315
0.00308834
0.00309353
0.0030987
0.00310388
0.00310904
0.00311419
0.00311933
0.00312447
0.0031296
0.00313471
0.00313982
0.00314492
0.00315001
0.00315509
0.00316016
0.00316522
0.00317026
0.0031753
0.00318033
0.00318534
0.00319035
0.00319534
0.00320032
0.00320529
0.00321025
0.00321519
0.00322013
0.00322505
0.00322995
0.00323485
0.00323973
0.0032446
0.00324945
0.00325429
0.00325912
0.00326393
0.00326873
0.00327352
0.00327829
0.00328304
0.00328778
0.00329251
0.00329722
0.00330192
0.00330659
0.00331126
0.00331591
0.00332054
0.00332515
0.00332975
0.00333433
0.0033389
0.00334345
0.00334798
0.00335249
0.00335699
0.00336147
0.00336593
0.00337038
0.0033748
0.00337921
0.0033836
0.00338797
0.00339232
0.00339666
0.00340097
0.00340527
0.00340955
0.00341381
0.00341804
0.00342226
0.00342646
0.00343064
0.0034348
0.00343894
0.00344306
0.00344716
0.00345124
0.0034553
0.00345934
0.00346336
0.00346736
0.00347134
0.00347529
0.00347923
0.00348314
0.00348704
0.00349091
0.00349476
0.00349859
0.0035024
0.00350618
0.00350995
0.00351369
0.00351741
0.00352111
0.00352479
0.00352845
0.00353208
0.0035357
0.00353929
0.00354286
0.0035464
0.00354993
0.00355343
0.00355691
0.00356037
0.00356381
0.00356722
0.00357061
0.00357398
0.00357733
0.00358065
0.00358395
0.00358723
0.00359049
0.00359373
0.00359694
0.00360013
0.0036033
0.00360644
0.00360957
0.00361267
0.00361575
0.0036188
0.00362184
0.00362485
0.00362784
0.0036308
0.00363375
0.00363667
0.00363957
0.00364245
0.00364531
0.00364814
0.00365095
0.00365374
0.00365651
0.00365926
0.00366198
0.00366469
0.00366737
0.00367003
0.00367266
0.00367528
0.00367788
0.00368045
0.003683
0.00368553
0.00368804
0.00369053
0.00369299
0.00369544
0.00369786
0.00370027
0.00370265
0.00370501
0.00370735
0.00370967
0.00371197
0.00371425
0.00371651
0.00371875
0.00372097
0.00372316
0.00372534
0.0037275
0.00372964
0.00373176
0.00373386
0.00373593
0.00373799
0.00374003
0.00374205
0.00374406
0.00374604
0.003748
0.00374995
0.00375187
0.00375378
0.00375567
0.00375753
0.00375939
0.00376122
0.00376303
0.00376483
0.00376661
0.00376837
0.00377011
0.00377183
0.00377354
0.00377523
0.0037769
0.00377856
0.0037802
0.00378182
0.00378342
0.00378501
0.00378658
0.00378813
0.00378967
0.00379119
0.00379269
0.00379418
0.00379565
0.00379711
0.00379855
0.00379998
0.00380138
0.00380278
0.00380416
0.00380552
0.00380687
0.0038082
0.00380952
0.00381082
0.00381211
0.00381339
0.00381464
0.00381589
0.00381712
0.00381834
0.00381954
0.00382073
0.00382191
0.00382307
0.00382422
0.00382535
0.00382647
0.00382758
0.00382867
0.00382976
0.00383083
0.00383188
0.00383293
0.00383396
0.00383498
0.00383598
0.00383698
0.00383796
0.00383893
0.00383989
0.00384084
0.00384177
0.00384269
0.00384361
0.00384451
0.0038454
0.00384628
0.00384714
0.003848
0.00384885
0.00384968
0.0038505
0.00385132
0.00385212
0.00385292
0.0038537
0.00385447
0.00385523
0.00385599
0.00385673
0.00385747
0.00385819
0.0038589
0.00385961
0.00386031
0.00386099
0.00386167
0.00386234
0.003863
0.00386365
0.00386429
0.00386493
0.00386555
0.00386617
0.00386678
0.00386738
0.00386797
0.00386855
0.00386913
0.0038697
0.00387026
0.00387081
0.00387135
0.00387189
0.00387242
0.00387294
0.00387346
0.00387397
0.00387447
0.00387496
0.00387545
0.00387593
0.0038764
0.00387687
0.00387732
0.00387778
0.00387822
0.00387866
0.0038791
0.00387953
0.00387995
0.00388036
0.00388077
0.00388117
0.00388157
0.00388196
0.00388235
0.00388273
0.0038831
0.00388347
0.00388383
0.00388419
0.00388454
0.00388489
0.00388523
0.00388557
0.0038859
0.00388623
0.00388655
0.00388687
0.00388718
0.00388749
0.00388779
0.00388809
0.00388838
0.00388867
0.00388895
0.00388923
0.00388951
0.00388978
0.00389005
0.00389031
0.00389057
0.00389082
0.00389107
0.00389132
0.00389156
0.0038918
0.00389204
0.00389227
0.0038925
0.00389272
0.00389294
0.00389316
0.00389337
0.00389358
0.00389379
0.00389399
0.00389419
0.00389439
0.00389458
0.00389477
0.00389496
0.00389514
0.00389532
0.0038955
0.00389567
0.00389585
0.00389601
0.00389618
0.00389634
0.0038965
0.00389666
0.00389682
0.00389697
0.00389712
0.00389727
0.00389741
0.00389755
0.00389769
0.00389783
0.00389797
0.0038981
0.00389823
0.00389836
0.00389848
0.00389861
0.00389873
0.00389885
0.00389897
0.00389908
0.00389919
0.0038993
0.00389941
0.00389952
0.00389963
0.00389973
0.00389983
0.00389993
0.00390003
0.00390012
0.00390022
0.00390031
0.0039004
0.00390049
0.00390058
0.00390066
0.00390075
0.00390083
0.00390091
0.00390099
0.00390107
0.00390115
0.00390122
0.0039013
0.00390137
0.00390144
0.00390151
0.00390158
0.00390165
0.00390171
0.00390178
0.00390184
0.0039019
0.00390196
0.00390202
0.00390208
0.00390214
0.00390219
0.00390225
0.0039023
0.00390236
0.00390241
0.00390246
0.00390251
0.00390256
0.0039026
0.00390265
0.0039027
0.00390274
0.00390279
0.00390283
0.00390287
0.00390291
0.00390295
0.00390299
0.00390303
0.00390307
0.00390311
0.00390314
0.00390318
0.00390321
0.00390325
0.00390328
0.00390331
0.00390334
0.00390338
0.00390341
0.00390344
0.00390347
0.00390349
0.00390352
0.00390355
0.00390358
0.0039036
0.00390363
0.00390365
0.00390368
0.0039037
0.00390372
0.00390375
0.00390377
0.00390379
0.00390381
0.00390383
0.00390385
0.00390387
0.00390389
0.00390391
0.00390393
0.00390395
0.00390397
0.00390398
0.003904
0.00390402
0.00390403
0.00390405
0.00390406
0.00390408
0.00390409
0.00390411
0.00390412
0.00390413
0.00390415
0.00390416
0.00390417
0.00390418
0.00390419
0.00390421
0.00390422
0.00390423
0.00390424
0.00390425
0.00390426
0.00390427
0.00390428
0.00390429
0.00390429
0.0039043
0.00390431
0.00390432
0.00390433
0.00390434
0.00390434
0.00390435
0.00390436
0.00390436
0.00390437
0.00390438
0.00390438
0.00390439
0.0039044
0.0039044
0.00390441
0.00390441
0.00390442
0.00390442
0.00390443
0.00390443
0.00390444
0.00390444
0.00390444
0.00390445
0.00390445
0.00390446
0.00390446
0.00390446
0.00390447
0.00390447
0.00390447
0.00390448
0.00390448
0.00390448
0.00390449
0.00390449
0.00390449
0.00390449
0.00390449
0.0039045
0.0039045
0.0039045
0.0039045
0.0039045
0.00390451
0.00390451
0.00390451
0.00390451
0.00390451
0.00390451
0.00390452
0.00390452
0.00390452
0.00390452
0.00390452
0.00390452
0.00390452
0.00390452
0.00390452
0.00390452
0.00390453
0.00390453
0.00390453
0.00390453
0.00390453
0.00390453
0.00390453
0.00390453
0.00390453
0.00390453
0.00390453
0.00390453
0.00390453
0.00390453
0.00390453
0.00390453
0.00390453
0.00390453
0.00390453
0.00390453
0.00390453
0.00390453
0.00390453
0.00390453
0.00390453
0.00390453
0.00390453
0.00390453
0.00390453
0.00390453
0.00390453
0.00390453
0.00390453
0.00390453
0.00390453
0.00390453
0.00390453
0.00390453
0.00390453
0.00390453
0.00390453
0.00390453
0.00390453
0.00390453
0.00390453
0.00390453
0.00390452
0.00390452
0.00390452
0.00390452
0.00390452
0.00390452
0.00390452
0.00390452
0.00390452
0.00390452
0.00390452
0.00390452
0.00390452
0.00390452
0.00390452
0.00390452
0.00390452
0.00390452
0.00390452
0.00390452
0.00390452
0.00390452
0.00390452
0.00390452
0.00390452
0.00390452
0.00390452
0.00390452
0.00390452
0.00390452
0.00390451
0.00390451
0.00390451
0.00390451
0.00390451
0.00390451
0.00390451
0.00390451
0.00390451
0.00390451
0.00390451
0.00390451
0.00390451
0.00390451
0.00390451
0.00390451
0.00390451
0.00390451
0.00390451
0.00390451
0.00390451
0.00390451
0.00390451
0.00390451
0.00390451
0.00390451
0.00390451
0.00390451
0.00390451
0.00390451
0.00390451
0.00390451
0.00390451
0.00390451
0.00390451
0.00390451
0.00390451
0.00390451
0.00390451
0.00390451
0.00390451
0.00390451
0.00390451
0.00390451
0.00390451
0.00390451
0.00390451
0.00390451
0.00390451
0.00390451
0.00390451
0.00390451
0.00390452
0.00390452
0.00390452
0.00390452
0.00390452
0.00390452
0.00390452
0.00390452
0.00390452
0.00390452
0.00390452
0.00390452
0.00390452
0.00390452
0.00390452
0.00390452
0.00390452
0.00390452
0.00390452
0.00390452
0.00390452
0.00390452
0.00390452
0.00390452
0.00390452
0.00390452
0.00390452
0.00390452
0.00390452
0.00390452
0.00390452
0.00390452
0.00390452
0.00390453
0.00390453
0.00390453
0.00390453
0.00390453
0.00390453
0.00390453
0.00390453
0.00390453
0.00390453
0.00390453
0.00390453
0.00390453
0.00390453
0.00390453
0.00390453
0.00390453
0.00390453
0.00390453
0.00390453
0.00390453
0.00390453
0.00390453
0.00390453
0.00390453
0.00390453
0.00390453
0.00390453
0.00390453
0.00390453
0.00390453
0.00390453
0.00390453
0.00390452
0.00390452
0.00390452
0.00390452
0.00390452
0.00390452
0.00390452
0.00390452
0.00390452
0.00390452
0.00390452
0.00390452
0.00390452
0.00390451
0.00390451
0.00390451
0.00390451
0.00390451
0.00390451
0.00390451
0.0039045
0.0039045
0.0039045
0.0039045
0.0039045
0.0039045
0.00390449
0.00390449
0.00390449
0.00390449
0.00390448
0.00390448
0.00390448
0.00390448
0.00390447
0.00390447
0.00390447
0.00390446
0.00390446
0.00390446
0.00390445
0.00390445
0.00390444
0.00390444
0.00390444
0.00390443
0.00390443
0.00390442
0.00390442
0.00390441
0.00390441
0.0039044
0.0039044
0.00390439
0.00390438
0.00390438
0.00390437
0.00390437
0.00390436
0.00390435
0.00390435
0.00390434
0.00390433
0.00390432
0.00390432
0.00390431
0.0039043
0.00390429
0.00390428
0.00390427
0.00390426
0.00390425
0.00390424
0.00390423
0.00390422
0.00390421
0.0039042
0.00390419
0.00390418
0.00390416
0.00390415
0.00390414
0.00390413
0.00390411
0.0039041
0.00390409
0.00390407
0.00390406
0.00390404
0.00390403
0.00390401
0.00390399
0.00390398
0.00390396
0.00390394
0.00390392
0.00390391
0.00390389
0.00390387
0.00390385
0.00390383
0.00390381
0.00390379
0.00390376
0.00390374
0.00390372
0.0039037
0.00390367
0.00390365
0.00390362
0.0039036
0.00390357
0.00390354
0.00390352
0.00390349
0.00390346
0.00390343
0.0039034
0.00390337
0.00390334
0.00390331
0.00390327
0.00390324
0.00390321
0.00390317
0.00390314
0.0039031
0.00390306
0.00390302
0.00390299
0.00390295
0.00390291
0.00390286
0.00390282
0.00390278
0.00390274
0.00390269
0.00390264
0.0039026
0.00390255
0.0039025
0.00390245
0.0039024
0.00390235
0.0039023
0.00390224
0.00390219
0.00390213
0.00390207
0.00390201
0.00390196
0.00390189
0.00390183
0.00390177
0.0039017
0.00390164
0.00390157
0.0039015
0.00390143
0.00390136
0.00390129
0.00390122
0.00390114
0.00390106
0.00390099
0.00390091
0.00390082
0.00390074
0.00390066
0.00390057
0.00390048
0.0039004
0.0039003
0.00390021
0.00390012
0.00390002
0.00389992
0.00389982
0.00389972
0.00389962
0.00389951
0.00389941
0.0038993
0.00389919
0.00389907
0.00389896
0.00389884
0.00389872
0.0038986
0.00389848
0.00389835
0.00389822
0.00389809
0.00389796
0.00389782
0.00389769
0.00389755
0.0038974
0.00389726
0.00389711
0.00389696
0.00389681
0.00389665
0.0038965
0.00389634
0.00389617
0.00389601
0.00389584
0.00389567
0.00389549
0.00389531
0.00389513
0.00389495
0.00389476
0.00389457
0.00389438
0.00389418
0.00389398
0.00389378
0.00389357
0.00389336
0.00389315
0.00389293
0.00389271
0.00389249
0.00389226
0.00389203
0.00389179
0.00389156
0.00389131
0.00389107
0.00389082
0.00389056
0.0038903
0.00389004
0.00388977
0.0038895
0.00388923
0.00388895
0.00388866
0.00388837
0.00388808
0.00388778
0.00388748
0.00388717
0.00388686
0.00388654
0.00388622
0.00388589
0.00388556
0.00388523
0.00388488
0.00388454
0.00388418
0.00388383
0.00388346
0.00388309
0.00388272
0.00388234
0.00388195
0.00388156
0.00388117
0.00388076
0.00388035
0.00387994
0.00387952
0.00387909
0.00387866
0.00387822
0.00387777
0.00387732
0.00387686
0.00387639
0.00387592
0.00387544
0.00387495
0.00387446
0.00387396
0.00387345
0.00387293
0.00387241
0.00387188
0.00387134
0.0038708
0.00387025
0.00386969
0.00386912
0.00386854
0.00386796
0.00386737
0.00386677
0.00386616
0.00386554
0.00386492
0.00386428
0.00386364
0.00386299
0.00386233
0.00386166
0.00386098
0.0038603
0.0038596
0.0038589
0.00385818
0.00385746
0.00385672
0.00385598
0.00385523
0.00385446
0.00385369
0.00385291
0.00385211
0.00385131
0.0038505
0.00384967
0.00384884
0.00384799
0.00384713
0.00384627
0.00384539
0.0038445
0.0038436
0.00384269
0.00384176
0.00384083
0.00383988
0.00383892
0.00383795
0.00383697
0.00383598
0.00383497
0.00383395
0.00383292
0.00383187
0.00383082
0.00382975
0.00382867
0.00382757
0.00382646
0.00382534
0.00382421
0.00382306
0.0038219
0.00382072
0.00381953
0.00381833
0.00381711
0.00381588
0.00381464
0.00381338
0.0038121
0.00381081
0.00380951
0.00380819
0.00380686
0.00380551
0.00380415
0.00380277
0.00380138
0.00379997
0.00379854
0.0037971
0.00379565
0.00379417
0.00379269
0.00379118
0.00378966
0.00378812
0.00378657
0.003785
0.00378341
0.00378181
0.00378019
0.00377855
0.0037769
0.00377522
0.00377353
0.00377183
0.0037701
0.00376836
0.0037666
0.00376482
0.00376303
0.00376121
0.00375938
0.00375753
0.00375566
0.00375377
0.00375186
0.00374994
0.00374799
0.00374603
0.00374405
0.00374205
0.00374003
0.00373799
0.00373593
0.00373385
0.00373175
0.00372963
0.00372749
0.00372534
0.00372316
0.00372096
0.00371874
0.0037165
0.00371425
0.00371197
0.00370967
0.00370735
0.003705
0.00370264
0.00370026
0.00369786
0.00369543
0.00369299
0.00369052
0.00368803
0.00368552
0.00368299
0.00368044
0.00367787
0.00367528
0.00367266
0.00367002
0.00366736
0.00366468
0.00366198
0.00365925
0.00365651
0.00365374
0.00365095
0.00364814
0.0036453
0.00364245
0.00363957
0.00363667
0.00363374
0.0036308
0.00362783
0.00362484
0.00362183
0.0036188
0.00361574
0.00361266
0.00360956
0.00360644
0.00360329
0.00360013
0.00359693
0.00359372
0.00359049
0.00358723
0.00358395
0.00358065
0.00357732
0.00357398
0.00357061
0.00356722
0.0035638
0.00356037
0.00355691
0.00355343
0.00354993
0.0035464
0.00354285
0.00353928
0.00353569
0.00353208
0.00352845
0.00352479
0.00352111
0.00351741
0.00351369
0.00350995
0.00350618
0.00350239
0.00349859
0.00349476
0.00349091
0.00348703
0.00348314
0.00347923
0.00347529
0.00347133
0.00346736
0.00346336
0.00345934
0.0034553
0.00345124
0.00344716
0.00344306
0.00343894
0.0034348
0.00343064
0.00342646
0.00342226
0.00341804
0.0034138
0.00340955
0.00340527
0.00340097
0.00339666
0.00339232
0.00338797
0.0033836
0.00337921
0.0033748
0.00337038
0.00336593
0.00336147
0.00335699
0.00335249
0.00334798
0.00334345
0.0033389
0.00333433
0.00332975
0.00332515
0.00332054
0.00331591
0.00331126
0.00330659
0.00330192
0.00329722
0.00329251
0.00328778
0.00328304
0.00327829
0.00327352
0.00326873
0.00326393
0.00325912
0.00325429
0.00324945
0.0032446
0.00323973
0.00323485
0.00322995
0.00322505
0.00322013
0.00321519
0.00321025
0.00320529
0.00320032
0.00319534
0.00319035
0.00318534
0.00318033
0.0031753
0.00317026
0.00316522
0.00316016
0.00315509
0.00315001
0.00314492
0.00313982
0.00313472
0.0031296
0.00312447
0.00311934
0.00311419
0.00310904
0.00310388
0.00309871
0.00309353
0.00308834
0.00308315
0.00307795
0.00307274
0.00306752
0.0030623
0.00305707
0.00305183
0.00304658
0.00304133
0.00303608
0.00303081
0.00302554
0.00302027
0.00301499
0.0030097
0.00300441
0.00299911
0.00299381
0.0029885
0.00298319
0.00297787
0.00297255
0.00296722
0.00296189
0.00295655
0.00295121
0.00294587
0.00294052
0.00293517
0.00292981
0.00292445
0.00291909
0.00291372
0.00290835
0.00290298
0.0028976
0.00289222
0.00288684
0.00288145
0.00287606
0.00287067
0.00286527
0.00285988
0.00285447
0.00284907
0.00284366
0.00283825
0.00283284
0.00282743
0.00282201
0.00281659
0.00281117
0.00280574
0.00280031
0.00279488
0.00278945
0.00278401
0.00277858
0.00277313
0.00276769
0.00276224
0.0027568
0.00275134
0.00274589
0.00274043
0.00273497
0.00272951
0.00272404
0.00271857
0.0027131
0.00270762
0.00270214
0.00269666
0.00269117
0.00268568
0.00268019
0.00267469
0.00266919
0.00266369
0.00265818
0.00265266
0.00264714
0.00264162
0.00263609
0.00263056
0.00262503
0.00261948
0.00261394
0.00260838
0.00260283
0.00259726
0.00259169
0.00258612
0.00258053
0.00257495
0.00256935
0.00256375
0.00255814
0.00255252
0.0025469
0.00254127
0.00253563
0.00252998
0.00252433
0.00251866
0.00251299
0.00250731
0.00250162
0.00249592
0.0024902
0.00248448
0.00247875
0.00247301
0.00246726
0.0024615
0.00245572
0.00244993
0.00244413
0.00243832
0.0024325
0.00242666
0.00242081
0.00241495
0.00240907
0.00240318
0.00239728
0.00239136
0.00238542
0.00237947
0.00237351
0.00236752
0.00236153
0.00235551
0.00234948
0.00234343
0.00233736
0.00233127
0.00232517
0.00231904
0.0023129
0.00230674
0.00230056
0.00229435
0.00228813
0.00228188
0.00227562
0.00226933
0.00226302
0.00225668
0.00225033
0.00224395
0.00223754
0.00223111
0.00222466
0.00221818
0.00221167
0.00220514
0.00219859
0.002192
0.00218539
0.00217875
0.00217208
0.00216538
0.00215866
0.0021519
0.00214512
0.0021383
0.00213145
0.00212457
0.00211766
0.00211072
0.00210374
0.00209673
0.00208969
0.00208261
0.0020755
0.00206835
0.00206117
0.00205395
0.00204669
0.0020394
0.00203207
0.0020247
0.00201729
0.00200984
0.00200235
0.00199483
0.00198726
0.00197965
0.001972
0.0019643
0.00195657
0.00194878
0.00194096
0.00193309
0.00192518
0.00191722
0.00190921
0.00190116
0.00189306
0.00188492
0.00187672
0.00186848
0.00186018
0.00185184
0.00184345
0.001835
0.00182651
0.00181796
0.00180936
0.0018007
0.00179199
0.00178323
0.00177441
0.00176554
0.00175661
0.00174762
0.00173858
0.00172948
0.00172031
0.00171109
0.00170181
0.00169247
0.00168307
0.00167361
0.00166408
0.00165449
0.00164484
0.00163513
0.00162535
0.0016155
0.00160559
0.00159561
0.00158556
0.00157545
0.00156526
0.00155501
0.00154469
0.0015343
0.00152383
0.00151329
0.00150269
0.001492
0.00148125
0.00147042
0.00145951
0.00144853
0.00143747
0.00142633
0.00141511
0.00140382
0.00139245
0.00138099
0.00136946
0.00135784
0.00134614
0.00133436
0.00132249
0.00131054
0.0012985
0.00128637
0.00127416
0.00126186
0.00124947
0.00123699
0.00122442
0.00121176
0.00119901
0.00118617
0.00117323
0.00116019
0.00114707
0.00113384
0.00112052
0.00110709
0.00109357
0.00107995
0.00106623
0.00105241
0.00103848
0.00102445
0.00101031
0.00099607
0.000981721
0.000967263
0.000952696
0.000938018
0.000923229
0.000908327
0.00089331
0.000878179
0.000862931
0.000847564
0.000832079
0.000816473
0.000800745
0.000784894
0.000768917
0.000752813
0.000736582
0.00072022
0.000703726
0.000687099
0.000670335
0.000653434
0.000636393
0.00061921
0.000601882
0.000584407
0.000566782
0.000549004
0.000531071
0.000512978
0.000494723
0.000476301
0.000457708
0.000438941
0.000419994
0.000400862
0.000381539
0.00036202
0.000342296
0.000322362
0.000302208
0.000281826
0.000261206
0.000240339
0.000219215
0.000197825
0.000176162
0.000154227
0.000132038
0.000109643
8.71693e-05
6.49164e-05
4.35983e-05
2.48416e-05
1.15225e-05
5.50979e-06
)
;

boundaryField
{
    top_wall
    {
        type            nutLowReWallFunction;
        value           uniform 0;
    }
    inlet
    {
        type            cyclic;
    }
    bot_wall
    {
        type            nutLowReWallFunction;
        value           uniform 0;
    }
    outlet
    {
        type            cyclic;
    }
    frontAndBack
    {
        type            empty;
    }
}


// ************************************************************************* //
