/*--------------------------------*- C++ -*----------------------------------*\
| =========                 |                                                 |
| \\      /  F ield         | OpenFOAM: The Open Source CFD Toolbox           |
|  \\    /   O peration     | Version:  2312                                  |
|   \\  /    A nd           | Website:  www.openfoam.com                      |
|    \\/     M anipulation  |                                                 |
\*---------------------------------------------------------------------------*/
FoamFile
{
    version     2.0;
    format      ascii;
    arch        "LSB;label=32;scalar=64";
    class       volVectorField;
    location    "0.895";
    object      U;
}
// * * * * * * * * * * * * * * * * * * * * * * * * * * * * * * * * * * * * * //

dimensions      [0 1 -1 0 0 0 0];

internalField   nonuniform List<vector> 
1000
(
(0.163675 -1.36116e-18 0)
(0.442142 -3.04104e-18 0)
(0.680557 -2.85225e-18 0)
(0.874835 -2.75293e-18 0)
(1.03438 -2.72597e-18 0)
(1.16905 -2.72635e-18 0)
(1.28573 -2.72853e-18 0)
(1.38898 -2.73107e-18 0)
(1.48187 -2.73108e-18 0)
(1.56654 -2.73208e-18 0)
(1.64452 -2.73559e-18 0)
(1.71695 -2.73874e-18 0)
(1.7847 -2.74171e-18 0)
(1.84845 -2.74374e-18 0)
(1.90872 -2.74355e-18 0)
(1.96596 -2.74128e-18 0)
(2.02051 -2.73783e-18 0)
(2.07266 -2.73316e-18 0)
(2.12266 -2.72686e-18 0)
(2.17072 -2.72145e-18 0)
(2.21701 -2.73095e-18 0)
(2.26168 -2.74101e-18 0)
(2.30487 -2.74007e-18 0)
(2.34669 -2.73547e-18 0)
(2.38723 -2.73363e-18 0)
(2.42659 -2.73748e-18 0)
(2.46485 -2.73993e-18 0)
(2.50207 -2.74526e-18 0)
(2.53831 -2.76365e-18 0)
(2.57364 -2.78237e-18 0)
(2.60809 -2.79052e-18 0)
(2.64172 -2.79251e-18 0)
(2.67456 -2.79448e-18 0)
(2.70665 -2.79627e-18 0)
(2.73802 -2.79056e-18 0)
(2.76871 -2.78253e-18 0)
(2.79873 -2.78462e-18 0)
(2.82812 -2.80371e-18 0)
(2.8569 -2.81986e-18 0)
(2.88509 -2.8244e-18 0)
(2.9127 -2.82515e-18 0)
(2.93976 -2.82647e-18 0)
(2.96628 -2.831e-18 0)
(2.99228 -2.83499e-18 0)
(3.01776 -2.83562e-18 0)
(3.04275 -2.83473e-18 0)
(3.06725 -2.83379e-18 0)
(3.09127 -2.83283e-18 0)
(3.11482 -2.8319e-18 0)
(3.13792 -2.83105e-18 0)
(3.16057 -2.83029e-18 0)
(3.18278 -2.82962e-18 0)
(3.20455 -2.82906e-18 0)
(3.22589 -2.82858e-18 0)
(3.24681 -2.8282e-18 0)
(3.26732 -2.82789e-18 0)
(3.28741 -2.82765e-18 0)
(3.30709 -2.82748e-18 0)
(3.32637 -2.82737e-18 0)
(3.34525 -2.8273e-18 0)
(3.36374 -2.82728e-18 0)
(3.38183 -2.82729e-18 0)
(3.39953 -2.82734e-18 0)
(3.41684 -2.82741e-18 0)
(3.43376 -2.82752e-18 0)
(3.4503 -2.82764e-18 0)
(3.46646 -2.82779e-18 0)
(3.48223 -2.82796e-18 0)
(3.49763 -2.82814e-18 0)
(3.51264 -2.82833e-18 0)
(3.52727 -2.82854e-18 0)
(3.54152 -2.82877e-18 0)
(3.55539 -2.829e-18 0)
(3.56888 -2.82925e-18 0)
(3.58198 -2.82952e-18 0)
(3.5947 -2.8298e-18 0)
(3.60704 -2.8301e-18 0)
(3.61898 -2.83042e-18 0)
(3.63053 -2.83077e-18 0)
(3.64169 -2.83115e-18 0)
(3.65245 -2.83157e-18 0)
(3.66281 -2.83203e-18 0)
(3.67277 -2.83255e-18 0)
(3.68231 -2.83312e-18 0)
(3.69143 -2.83377e-18 0)
(3.70014 -2.8345e-18 0)
(3.70841 -2.83533e-18 0)
(3.71625 -2.83621e-18 0)
(3.72365 -2.83721e-18 0)
(3.7306 -2.83833e-18 0)
(3.73709 -2.83954e-18 0)
(3.74311 -2.84084e-18 0)
(3.74866 -2.84226e-18 0)
(3.75373 -2.8438e-18 0)
(3.7583 -2.84549e-18 0)
(3.76239 -2.84734e-18 0)
(3.76597 -2.84937e-18 0)
(3.76905 -2.8516e-18 0)
(3.77162 -2.85406e-18 0)
(3.77368 -2.85677e-18 0)
(3.77523 -2.85977e-18 0)
(3.77629 -2.86331e-18 0)
(3.77685 -2.86616e-18 0)
(3.77692 -2.86533e-18 0)
(3.77651 -2.86093e-18 0)
(3.77565 -2.85724e-18 0)
(3.77434 -2.86455e-18 0)
(3.7726 -2.87489e-18 0)
(3.77045 -2.86953e-18 0)
(3.76791 -2.86426e-18 0)
(3.76499 -2.87427e-18 0)
(3.76173 -2.88276e-18 0)
(3.75814 -2.88046e-18 0)
(3.75423 -2.87595e-18 0)
(3.75004 -2.87356e-18 0)
(3.74557 -2.87319e-18 0)
(3.74083 -2.87505e-18 0)
(3.73586 -2.87911e-18 0)
(3.73066 -2.88717e-18 0)
(3.72524 -2.89693e-18 0)
(3.71962 -2.89714e-18 0)
(3.7138 -2.89758e-18 0)
(3.7078 -2.90453e-18 0)
(3.70163 -2.90657e-18 0)
(3.6953 -2.90589e-18 0)
(3.68881 -2.90541e-18 0)
(3.68217 -2.90481e-18 0)
(3.67539 -2.90392e-18 0)
(3.66847 -2.90224e-18 0)
(3.66144 -2.90034e-18 0)
(3.65428 -2.90406e-18 0)
(3.64701 -2.90711e-18 0)
(3.63963 -2.89433e-18 0)
(3.63216 -2.88062e-18 0)
(3.6246 -2.88181e-18 0)
(3.61695 -2.8894e-18 0)
(3.60922 -2.89171e-18 0)
(3.60143 -2.87805e-18 0)
(3.59358 -2.86424e-18 0)
(3.58568 -2.86783e-18 0)
(3.57773 -2.87903e-18 0)
(3.56975 -2.88223e-18 0)
(3.56175 -2.86493e-18 0)
(3.55374 -2.84794e-18 0)
(3.54573 -2.84664e-18 0)
(3.53773 -2.84798e-18 0)
(3.52975 -2.84788e-18 0)
(3.52181 -2.84631e-18 0)
(3.51393 -2.84059e-18 0)
(3.50612 -2.83326e-18 0)
(3.4984 -2.82747e-18 0)
(3.49078 -2.82337e-18 0)
(3.48329 -2.82075e-18 0)
(3.47594 -2.81739e-18 0)
(3.46876 -2.81344e-18 0)
(3.46176 -2.81189e-18 0)
(3.45498 -2.81661e-18 0)
(3.44842 -2.81796e-18 0)
(3.44211 -2.81334e-18 0)
(3.43608 -2.78969e-18 0)
(3.43032 -2.76375e-18 0)
(3.42487 -2.75006e-18 0)
(3.41972 -2.74595e-18 0)
(3.4149 -2.75114e-18 0)
(3.41039 -2.75271e-18 0)
(3.40621 -2.74469e-18 0)
(3.40234 -2.72189e-18 0)
(3.39877 -2.69156e-18 0)
(3.39551 -2.67518e-18 0)
(3.39252 -2.66995e-18 0)
(3.38979 -2.65926e-18 0)
(3.38731 -2.63328e-18 0)
(3.38506 -2.62602e-18 0)
(3.38302 -2.63019e-18 0)
(3.38116 -2.61842e-18 0)
(3.37948 -2.62772e-18 0)
(3.37796 -2.64136e-18 0)
(3.37657 -2.63359e-18 0)
(3.37531 -2.62734e-18 0)
(3.37417 -2.62317e-18 0)
(3.37312 -2.61203e-18 0)
(3.37217 -2.59833e-18 0)
(3.3713 -2.57793e-18 0)
(3.3705 -2.55087e-18 0)
(3.36976 -2.53009e-18 0)
(3.36909 -2.51454e-18 0)
(3.36847 -2.49612e-18 0)
(3.36789 -2.48409e-18 0)
(3.36736 -2.46469e-18 0)
(3.36687 -2.46214e-18 0)
(3.36641 -2.45876e-18 0)
(3.36599 -2.44026e-18 0)
(3.36559 -2.42702e-18 0)
(3.36522 -2.42476e-18 0)
(3.36488 -2.41717e-18 0)
(3.36456 -2.38789e-18 0)
(3.36426 -2.37013e-18 0)
(3.36397 -2.35759e-18 0)
(3.36371 -2.33864e-18 0)
(3.36346 -2.32517e-18 0)
(3.36322 -2.30971e-18 0)
(3.363 -2.28179e-18 0)
(3.36279 -2.26212e-18 0)
(3.3626 -2.2546e-18 0)
(3.36241 -2.23344e-18 0)
(3.36224 -2.20882e-18 0)
(3.36207 -2.18673e-18 0)
(3.36191 -2.1674e-18 0)
(3.36177 -2.1633e-18 0)
(3.36163 -2.15733e-18 0)
(3.36149 -2.14421e-18 0)
(3.36137 -2.12981e-18 0)
(3.36125 -2.11336e-18 0)
(3.36114 -2.09422e-18 0)
(3.36103 -2.08207e-18 0)
(3.36093 -2.07924e-18 0)
(3.36084 -2.07755e-18 0)
(3.36075 -2.06797e-18 0)
(3.36066 -2.05376e-18 0)
(3.36058 -2.04389e-18 0)
(3.3605 -2.03518e-18 0)
(3.36043 -2.02816e-18 0)
(3.36036 -2.01594e-18 0)
(3.3603 -2.00333e-18 0)
(3.36023 -1.99097e-18 0)
(3.36018 -1.9707e-18 0)
(3.36012 -1.95687e-18 0)
(3.36007 -1.95215e-18 0)
(3.36002 -1.94814e-18 0)
(3.35997 -1.93783e-18 0)
(3.35993 -1.94279e-18 0)
(3.35989 -1.9531e-18 0)
(3.35985 -1.94667e-18 0)
(3.35981 -1.93059e-18 0)
(3.35977 -1.9088e-18 0)
(3.35974 -1.89603e-18 0)
(3.35971 -1.88725e-18 0)
(3.35968 -1.87623e-18 0)
(3.35965 -1.86423e-18 0)
(3.35962 -1.84548e-18 0)
(3.3596 -1.8235e-18 0)
(3.35957 -1.79825e-18 0)
(3.35955 -1.77096e-18 0)
(3.35953 -1.74893e-18 0)
(3.35951 -1.72868e-18 0)
(3.35949 -1.70965e-18 0)
(3.35948 -1.68352e-18 0)
(3.35946 -1.65131e-18 0)
(3.35944 -1.61947e-18 0)
(3.35943 -1.5865e-18 0)
(3.35942 -1.55786e-18 0)
(3.3594 -1.53246e-18 0)
(3.35939 -1.50569e-18 0)
(3.35938 -1.46291e-18 0)
(3.35937 -1.42089e-18 0)
(3.35936 -1.39929e-18 0)
(3.35935 -1.37973e-18 0)
(3.35934 -1.35292e-18 0)
(3.35933 -1.31378e-18 0)
(3.35932 -1.27148e-18 0)
(3.35932 -1.2556e-18 0)
(3.35931 -1.26397e-18 0)
(3.3593 -1.25316e-18 0)
(3.3593 -1.20848e-18 0)
(3.35929 -1.15679e-18 0)
(3.35929 -1.14357e-18 0)
(3.35928 -1.14582e-18 0)
(3.35928 -1.14309e-18 0)
(3.35927 -1.1276e-18 0)
(3.35927 -1.09446e-18 0)
(3.35927 -1.07078e-18 0)
(3.35926 -1.0737e-18 0)
(3.35926 -1.07848e-18 0)
(3.35926 -1.06185e-18 0)
(3.35925 -1.0365e-18 0)
(3.35925 -1.01416e-18 0)
(3.35925 -9.92166e-19 0)
(3.35925 -9.76888e-19 0)
(3.35924 -9.80923e-19 0)
(3.35924 -9.92644e-19 0)
(3.35924 -9.98575e-19 0)
(3.35924 -9.79982e-19 0)
(3.35924 -9.64785e-19 0)
(3.35923 -9.64601e-19 0)
(3.35923 -9.4753e-19 0)
(3.35923 -9.23165e-19 0)
(3.35923 -9.11209e-19 0)
(3.35923 -8.9736e-19 0)
(3.35923 -8.70856e-19 0)
(3.35923 -8.47488e-19 0)
(3.35923 -8.3543e-19 0)
(3.35923 -8.26569e-19 0)
(3.35923 -8.15321e-19 0)
(3.35922 -8.05016e-19 0)
(3.35922 -8.00108e-19 0)
(3.35922 -7.94734e-19 0)
(3.35922 -7.90635e-19 0)
(3.35922 -7.8186e-19 0)
(3.35922 -7.89186e-19 0)
(3.35922 -7.97232e-19 0)
(3.35922 -7.73988e-19 0)
(3.35922 -7.55632e-19 0)
(3.35922 -7.51005e-19 0)
(3.35922 -7.45382e-19 0)
(3.35922 -7.33484e-19 0)
(3.35922 -7.20099e-19 0)
(3.35922 -7.11729e-19 0)
(3.35922 -7.01799e-19 0)
(3.35922 -6.88297e-19 0)
(3.35922 -6.47973e-19 0)
(3.35922 -6.0435e-19 0)
(3.35922 -5.7314e-19 0)
(3.35922 -5.47233e-19 0)
(3.35922 -5.41909e-19 0)
(3.35922 -5.42869e-19 0)
(3.35922 -5.43526e-19 0)
(3.35922 -5.43273e-19 0)
(3.35922 -5.42564e-19 0)
(3.35922 -5.4166e-19 0)
(3.35922 -5.40745e-19 0)
(3.35922 -5.39942e-19 0)
(3.35922 -5.39329e-19 0)
(3.35922 -5.3895e-19 0)
(3.35922 -5.38825e-19 0)
(3.35922 -5.38958e-19 0)
(3.35922 -5.39341e-19 0)
(3.35922 -5.39959e-19 0)
(3.35922 -5.40793e-19 0)
(3.35922 -5.41822e-19 0)
(3.35922 -5.43022e-19 0)
(3.35922 -5.44371e-19 0)
(3.35922 -5.45847e-19 0)
(3.35922 -5.47431e-19 0)
(3.35922 -5.49102e-19 0)
(3.35922 -5.50845e-19 0)
(3.35922 -5.52643e-19 0)
(3.35922 -5.54484e-19 0)
(3.35922 -5.56354e-19 0)
(3.35922 -5.58245e-19 0)
(3.35922 -5.60146e-19 0)
(3.35922 -5.6205e-19 0)
(3.35922 -5.63951e-19 0)
(3.35922 -5.65844e-19 0)
(3.35922 -5.67723e-19 0)
(3.35922 -5.69585e-19 0)
(3.35922 -5.71427e-19 0)
(3.35922 -5.73246e-19 0)
(3.35922 -5.75041e-19 0)
(3.35922 -5.7681e-19 0)
(3.35922 -5.78551e-19 0)
(3.35922 -5.80264e-19 0)
(3.35922 -5.81949e-19 0)
(3.35922 -5.83603e-19 0)
(3.35922 -5.85228e-19 0)
(3.35922 -5.86824e-19 0)
(3.35922 -5.88389e-19 0)
(3.35922 -5.89925e-19 0)
(3.35922 -5.91431e-19 0)
(3.35922 -5.92907e-19 0)
(3.35922 -5.94355e-19 0)
(3.35922 -5.95773e-19 0)
(3.35922 -5.97163e-19 0)
(3.35922 -5.98525e-19 0)
(3.35922 -5.99858e-19 0)
(3.35922 -6.01164e-19 0)
(3.35922 -6.02443e-19 0)
(3.35922 -6.03695e-19 0)
(3.35922 -6.04921e-19 0)
(3.35922 -6.0612e-19 0)
(3.35922 -6.07294e-19 0)
(3.35922 -6.08443e-19 0)
(3.35922 -6.09567e-19 0)
(3.35922 -6.10666e-19 0)
(3.35922 -6.11741e-19 0)
(3.35922 -6.12792e-19 0)
(3.35922 -6.13819e-19 0)
(3.35922 -6.14824e-19 0)
(3.35922 -6.15805e-19 0)
(3.35922 -6.16764e-19 0)
(3.35922 -6.17701e-19 0)
(3.35922 -6.18617e-19 0)
(3.35922 -6.1951e-19 0)
(3.35922 -6.20383e-19 0)
(3.35922 -6.21234e-19 0)
(3.35922 -6.22065e-19 0)
(3.35922 -6.22876e-19 0)
(3.35922 -6.23666e-19 0)
(3.35922 -6.24437e-19 0)
(3.35922 -6.25189e-19 0)
(3.35922 -6.25922e-19 0)
(3.35922 -6.26636e-19 0)
(3.35922 -6.27331e-19 0)
(3.35922 -6.28008e-19 0)
(3.35922 -6.28668e-19 0)
(3.35922 -6.2931e-19 0)
(3.35922 -6.29934e-19 0)
(3.35922 -6.30542e-19 0)
(3.35922 -6.31133e-19 0)
(3.35922 -6.31707e-19 0)
(3.35922 -6.32266e-19 0)
(3.35922 -6.32808e-19 0)
(3.35922 -6.33335e-19 0)
(3.35922 -6.33847e-19 0)
(3.35922 -6.34344e-19 0)
(3.35922 -6.34826e-19 0)
(3.35922 -6.35295e-19 0)
(3.35922 -6.35749e-19 0)
(3.35922 -6.36189e-19 0)
(3.35922 -6.36616e-19 0)
(3.35922 -6.37029e-19 0)
(3.35922 -6.3743e-19 0)
(3.35922 -6.37819e-19 0)
(3.35922 -6.38195e-19 0)
(3.35922 -6.38559e-19 0)
(3.35922 -6.38911e-19 0)
(3.35922 -6.39252e-19 0)
(3.35922 -6.39582e-19 0)
(3.35922 -6.39901e-19 0)
(3.35922 -6.4021e-19 0)
(3.35922 -6.40508e-19 0)
(3.35922 -6.40797e-19 0)
(3.35922 -6.41075e-19 0)
(3.35922 -6.41345e-19 0)
(3.35922 -6.41605e-19 0)
(3.35922 -6.41856e-19 0)
(3.35922 -6.42098e-19 0)
(3.35922 -6.42333e-19 0)
(3.35922 -6.42559e-19 0)
(3.35922 -6.42777e-19 0)
(3.35922 -6.42988e-19 0)
(3.35922 -6.43191e-19 0)
(3.35922 -6.43387e-19 0)
(3.35922 -6.43577e-19 0)
(3.35922 -6.4376e-19 0)
(3.35922 -6.43936e-19 0)
(3.35922 -6.44107e-19 0)
(3.35922 -6.44271e-19 0)
(3.35922 -6.4443e-19 0)
(3.35922 -6.44584e-19 0)
(3.35922 -6.44732e-19 0)
(3.35922 -6.44875e-19 0)
(3.35922 -6.45014e-19 0)
(3.35922 -6.45148e-19 0)
(3.35922 -6.45277e-19 0)
(3.35922 -6.45403e-19 0)
(3.35922 -6.45525e-19 0)
(3.35922 -6.45643e-19 0)
(3.35922 -6.45757e-19 0)
(3.35922 -6.45868e-19 0)
(3.35922 -6.45976e-19 0)
(3.35922 -6.46082e-19 0)
(3.35922 -6.46184e-19 0)
(3.35922 -6.46284e-19 0)
(3.35922 -6.46381e-19 0)
(3.35922 -6.46477e-19 0)
(3.35922 -6.4657e-19 0)
(3.35922 -6.46662e-19 0)
(3.35922 -6.46751e-19 0)
(3.35922 -6.4684e-19 0)
(3.35922 -6.46927e-19 0)
(3.35922 -6.47013e-19 0)
(3.35922 -6.47098e-19 0)
(3.35922 -6.47182e-19 0)
(3.35922 -6.47266e-19 0)
(3.35922 -6.47349e-19 0)
(3.35922 -6.47432e-19 0)
(3.35922 -6.47514e-19 0)
(3.35922 -6.47597e-19 0)
(3.35922 -6.4768e-19 0)
(3.35922 -6.47763e-19 0)
(3.35922 -6.47847e-19 0)
(3.35922 -6.47931e-19 0)
(3.35922 -6.48016e-19 0)
(3.35922 -6.48102e-19 0)
(3.35922 -6.48189e-19 0)
(3.35922 -6.48277e-19 0)
(3.35922 -6.48367e-19 0)
(3.35922 -6.48458e-19 0)
(3.35922 -6.48551e-19 0)
(3.35922 -6.48646e-19 0)
(3.35922 -6.48742e-19 0)
(3.35922 -6.48841e-19 0)
(3.35922 -6.48943e-19 0)
(3.35922 -6.49046e-19 0)
(3.35922 -6.49152e-19 0)
(3.35922 -6.49261e-19 0)
(3.35922 -6.49373e-19 0)
(3.35922 -6.49488e-19 0)
(3.35922 -6.49606e-19 0)
(3.35922 -6.49728e-19 0)
(3.35922 -6.49853e-19 0)
(3.35922 -6.49982e-19 0)
(3.35922 -6.50115e-19 0)
(3.35922 -6.50251e-19 0)
(3.35922 -6.50392e-19 0)
(3.35922 -6.50537e-19 0)
(3.35922 -6.50687e-19 0)
(3.35922 -6.50841e-19 0)
(3.35922 -6.51e-19 0)
(3.35922 -6.51164e-19 0)
(3.35922 -6.51333e-19 0)
(3.35922 -6.51508e-19 0)
(3.35922 -6.51688e-19 0)
(3.35922 -6.51873e-19 0)
(3.35922 -6.52065e-19 0)
(3.35922 -6.52262e-19 0)
(3.35922 -6.52466e-19 0)
(3.35922 -6.52676e-19 0)
(3.35922 -6.52893e-19 0)
(3.35922 -6.53116e-19 0)
(3.35922 -6.53346e-19 0)
(3.35922 -6.53583e-19 0)
(3.35922 -6.53828e-19 0)
(3.35922 -6.5408e-19 0)
(3.35922 -6.54339e-19 0)
(3.35922 -6.54606e-19 0)
(3.35922 -6.54881e-19 0)
(3.35922 -6.55165e-19 0)
(3.35922 -6.55456e-19 0)
(3.35922 -6.55756e-19 0)
(3.35922 -6.56065e-19 0)
(3.35922 -6.56383e-19 0)
(3.35922 -6.56709e-19 0)
(3.35922 -6.57045e-19 0)
(3.35922 -6.5739e-19 0)
(3.35922 -6.57745e-19 0)
(3.35922 -6.5811e-19 0)
(3.35922 -6.58484e-19 0)
(3.35922 -6.58868e-19 0)
(3.35922 -6.59263e-19 0)
(3.35922 -6.59667e-19 0)
(3.35922 -6.60082e-19 0)
(3.35922 -6.60508e-19 0)
(3.35922 -6.60945e-19 0)
(3.35922 -6.61392e-19 0)
(3.35922 -6.6185e-19 0)
(3.35922 -6.62319e-19 0)
(3.35922 -6.62799e-19 0)
(3.35922 -6.63291e-19 0)
(3.35922 -6.63794e-19 0)
(3.35922 -6.64308e-19 0)
(3.35922 -6.64833e-19 0)
(3.35922 -6.6537e-19 0)
(3.35922 -6.65918e-19 0)
(3.35922 -6.66478e-19 0)
(3.35922 -6.67049e-19 0)
(3.35922 -6.67631e-19 0)
(3.35922 -6.68224e-19 0)
(3.35922 -6.68829e-19 0)
(3.35922 -6.69444e-19 0)
(3.35922 -6.70071e-19 0)
(3.35922 -6.70708e-19 0)
(3.35922 -6.71356e-19 0)
(3.35922 -6.72014e-19 0)
(3.35922 -6.72682e-19 0)
(3.35922 -6.7336e-19 0)
(3.35922 -6.74048e-19 0)
(3.35922 -6.74745e-19 0)
(3.35922 -6.75451e-19 0)
(3.35922 -6.76165e-19 0)
(3.35922 -6.76887e-19 0)
(3.35922 -6.77617e-19 0)
(3.35922 -6.78354e-19 0)
(3.35922 -6.79098e-19 0)
(3.35922 -6.79848e-19 0)
(3.35922 -6.80604e-19 0)
(3.35922 -6.81365e-19 0)
(3.35922 -6.8213e-19 0)
(3.35922 -6.82899e-19 0)
(3.35922 -6.83672e-19 0)
(3.35922 -6.84447e-19 0)
(3.35922 -6.85224e-19 0)
(3.35922 -6.86003e-19 0)
(3.35922 -6.86783e-19 0)
(3.35922 -6.87563e-19 0)
(3.35922 -6.88342e-19 0)
(3.35922 -6.89121e-19 0)
(3.35922 -6.89898e-19 0)
(3.35922 -6.90673e-19 0)
(3.35922 -6.91446e-19 0)
(3.35922 -6.92215e-19 0)
(3.35922 -6.92981e-19 0)
(3.35922 -6.93743e-19 0)
(3.35922 -6.94501e-19 0)
(3.35922 -6.95254e-19 0)
(3.35922 -6.96003e-19 0)
(3.35922 -6.96747e-19 0)
(3.35922 -6.97486e-19 0)
(3.35922 -6.9822e-19 0)
(3.35922 -6.98948e-19 0)
(3.35922 -6.99672e-19 0)
(3.35922 -7.0039e-19 0)
(3.35922 -7.01103e-19 0)
(3.35922 -7.01811e-19 0)
(3.35922 -7.02514e-19 0)
(3.35922 -7.03213e-19 0)
(3.35922 -7.03906e-19 0)
(3.35922 -7.04596e-19 0)
(3.35922 -7.0528e-19 0)
(3.35922 -7.0596e-19 0)
(3.35922 -7.06636e-19 0)
(3.35922 -7.07308e-19 0)
(3.35922 -7.07975e-19 0)
(3.35922 -7.08638e-19 0)
(3.35922 -7.09297e-19 0)
(3.35922 -7.09952e-19 0)
(3.35922 -7.10603e-19 0)
(3.35922 -7.11251e-19 0)
(3.35922 -7.11897e-19 0)
(3.35922 -7.1254e-19 0)
(3.35922 -7.13182e-19 0)
(3.35922 -7.13824e-19 0)
(3.35922 -7.14468e-19 0)
(3.35922 -7.15114e-19 0)
(3.35922 -7.15765e-19 0)
(3.35922 -7.16424e-19 0)
(3.35922 -7.17093e-19 0)
(3.35922 -7.17774e-19 0)
(3.35922 -7.18473e-19 0)
(3.35922 -7.19193e-19 0)
(3.35922 -7.19939e-19 0)
(3.35922 -7.20721e-19 0)
(3.35922 -7.21546e-19 0)
(3.35922 -7.22428e-19 0)
(3.35922 -7.23385e-19 0)
(3.35922 -7.24441e-19 0)
(3.35922 -7.25628e-19 0)
(3.35922 -7.26992e-19 0)
(3.35922 -7.28598e-19 0)
(3.35922 -7.30541e-19 0)
(3.35922 -7.32859e-19 0)
(3.35922 -7.36903e-19 0)
(3.35922 -7.36545e-19 0)
(3.35922 -7.36184e-19 0)
(3.35922 -7.40217e-19 0)
(3.35922 -7.42518e-19 0)
(3.35922 -7.44435e-19 0)
(3.35922 -7.46007e-19 0)
(3.35922 -7.47328e-19 0)
(3.35922 -7.48461e-19 0)
(3.35922 -7.49452e-19 0)
(3.35922 -7.5033e-19 0)
(3.35922 -7.5112e-19 0)
(3.35922 -7.51836e-19 0)
(3.35922 -7.5249e-19 0)
(3.35922 -7.5309e-19 0)
(3.35922 -7.53639e-19 0)
(3.35922 -7.54142e-19 0)
(3.35922 -7.546e-19 0)
(3.35922 -7.55014e-19 0)
(3.35922 -7.55385e-19 0)
(3.35922 -7.55712e-19 0)
(3.35922 -7.55993e-19 0)
(3.35922 -7.56228e-19 0)
(3.35922 -7.56415e-19 0)
(3.35922 -7.56551e-19 0)
(3.35922 -7.56634e-19 0)
(3.35922 -7.56662e-19 0)
(3.35922 -7.5663e-19 0)
(3.35922 -7.56536e-19 0)
(3.35922 -7.56377e-19 0)
(3.35922 -7.56149e-19 0)
(3.35922 -7.55848e-19 0)
(3.35922 -7.55472e-19 0)
(3.35922 -7.55017e-19 0)
(3.35922 -7.5448e-19 0)
(3.35922 -7.53857e-19 0)
(3.35922 -7.53147e-19 0)
(3.35922 -7.52346e-19 0)
(3.35922 -7.51452e-19 0)
(3.35922 -7.50463e-19 0)
(3.35922 -7.49377e-19 0)
(3.35922 -7.48191e-19 0)
(3.35922 -7.46905e-19 0)
(3.35922 -7.45515e-19 0)
(3.35922 -7.44019e-19 0)
(3.35922 -7.42416e-19 0)
(3.35922 -7.40701e-19 0)
(3.35922 -7.38871e-19 0)
(3.35922 -7.3692e-19 0)
(3.35922 -7.34843e-19 0)
(3.35922 -7.32632e-19 0)
(3.35922 -7.30276e-19 0)
(3.35922 -7.27765e-19 0)
(3.35922 -7.25083e-19 0)
(3.35922 -7.22213e-19 0)
(3.35922 -7.19134e-19 0)
(3.35922 -7.1582e-19 0)
(3.35922 -7.12244e-19 0)
(3.35922 -7.08371e-19 0)
(3.35922 -7.04164e-19 0)
(3.35922 -6.99578e-19 0)
(3.35922 -6.94565e-19 0)
(3.35922 -6.89069e-19 0)
(3.35922 -6.83028e-19 0)
(3.35922 -6.76372e-19 0)
(3.35922 -6.69023e-19 0)
(3.35922 -6.60889e-19 0)
(3.35922 -6.51865e-19 0)
(3.35922 -6.41819e-19 0)
(3.35922 -6.30588e-19 0)
(3.35922 -6.17862e-19 0)
(3.35922 -6.04584e-19 0)
(3.35922 -5.95443e-19 0)
(3.35922 -6.12872e-19 0)
(3.35922 -6.30037e-19 0)
(3.35922 -6.21635e-19 0)
(3.35923 -6.11649e-19 0)
(3.35923 -6.03269e-19 0)
(3.35923 -5.96069e-19 0)
(3.35923 -5.89919e-19 0)
(3.35923 -5.84773e-19 0)
(3.35923 -5.8047e-19 0)
(3.35923 -5.79391e-19 0)
(3.35923 -6.03182e-19 0)
(3.35923 -6.26341e-19 0)
(3.35923 -6.24927e-19 0)
(3.35924 -6.22024e-19 0)
(3.35924 -6.21281e-19 0)
(3.35924 -6.16339e-19 0)
(3.35924 -6.13153e-19 0)
(3.35924 -6.16102e-19 0)
(3.35925 -6.17489e-19 0)
(3.35925 -6.18738e-19 0)
(3.35925 -6.19815e-19 0)
(3.35925 -6.20733e-19 0)
(3.35926 -6.21469e-19 0)
(3.35926 -6.21983e-19 0)
(3.35926 -6.2222e-19 0)
(3.35927 -6.22116e-19 0)
(3.35927 -6.21599e-19 0)
(3.35927 -6.20593e-19 0)
(3.35928 -6.19019e-19 0)
(3.35928 -6.16794e-19 0)
(3.35929 -6.13836e-19 0)
(3.35929 -6.1006e-19 0)
(3.3593 -6.0538e-19 0)
(3.3593 -5.9971e-19 0)
(3.35931 -5.92963e-19 0)
(3.35932 -5.85049e-19 0)
(3.35932 -5.7579e-19 0)
(3.35933 -5.66338e-19 0)
(3.35934 -5.60753e-19 0)
(3.35935 -5.63807e-19 0)
(3.35936 -5.66482e-19 0)
(3.35937 -5.61371e-19 0)
(3.35938 -5.53236e-19 0)
(3.35939 -5.4461e-19 0)
(3.3594 -5.36754e-19 0)
(3.35941 -5.2949e-19 0)
(3.35943 -5.22741e-19 0)
(3.35944 -5.16434e-19 0)
(3.35946 -5.10498e-19 0)
(3.35948 -5.04869e-19 0)
(3.35949 -4.99491e-19 0)
(3.35951 -4.94311e-19 0)
(3.35953 -4.89285e-19 0)
(3.35955 -4.84374e-19 0)
(3.35957 -4.79548e-19 0)
(3.3596 -4.74782e-19 0)
(3.35962 -4.70057e-19 0)
(3.35965 -4.65359e-19 0)
(3.35968 -4.60679e-19 0)
(3.35971 -4.56011e-19 0)
(3.35974 -4.51353e-19 0)
(3.35977 -4.46704e-19 0)
(3.35981 -4.42067e-19 0)
(3.35985 -4.37445e-19 0)
(3.35989 -4.32841e-19 0)
(3.35993 -4.2826e-19 0)
(3.35997 -4.23707e-19 0)
(3.36002 -4.19186e-19 0)
(3.36007 -4.14704e-19 0)
(3.36012 -4.10264e-19 0)
(3.36018 -4.05872e-19 0)
(3.36023 -4.01531e-19 0)
(3.3603 -3.97246e-19 0)
(3.36036 -3.93021e-19 0)
(3.36043 -3.88858e-19 0)
(3.3605 -3.84762e-19 0)
(3.36058 -3.80736e-19 0)
(3.36066 -3.76783e-19 0)
(3.36075 -3.72906e-19 0)
(3.36084 -3.69109e-19 0)
(3.36093 -3.65396e-19 0)
(3.36103 -3.6177e-19 0)
(3.36114 -3.58236e-19 0)
(3.36125 -3.54799e-19 0)
(3.36137 -3.51466e-19 0)
(3.36149 -3.48243e-19 0)
(3.36163 -3.45137e-19 0)
(3.36177 -3.42159e-19 0)
(3.36191 -3.39319e-19 0)
(3.36207 -3.36631e-19 0)
(3.36224 -3.34109e-19 0)
(3.36241 -3.31768e-19 0)
(3.3626 -3.29628e-19 0)
(3.36279 -3.27702e-19 0)
(3.363 -3.26001e-19 0)
(3.36322 -3.24525e-19 0)
(3.36346 -3.2325e-19 0)
(3.36371 -3.22111e-19 0)
(3.36397 -3.20957e-19 0)
(3.36426 -3.19763e-19 0)
(3.36456 -3.1952e-19 0)
(3.36488 -3.24237e-19 0)
(3.36522 -3.52834e-19 0)
(3.36559 -3.82961e-19 0)
(3.36599 -3.89341e-19 0)
(3.36641 -3.91052e-19 0)
(3.36687 -3.91937e-19 0)
(3.36736 -3.92891e-19 0)
(3.36789 -3.93964e-19 0)
(3.36847 -3.94958e-19 0)
(3.36909 -3.95779e-19 0)
(3.36976 -3.96375e-19 0)
(3.3705 -3.9672e-19 0)
(3.3713 -3.96806e-19 0)
(3.37217 -3.96635e-19 0)
(3.37312 -3.96206e-19 0)
(3.37417 -3.95522e-19 0)
(3.37531 -3.94584e-19 0)
(3.37657 -3.93387e-19 0)
(3.37796 -3.9192e-19 0)
(3.37948 -3.90166e-19 0)
(3.38116 -3.8811e-19 0)
(3.38302 -3.85733e-19 0)
(3.38506 -3.82998e-19 0)
(3.38731 -3.79877e-19 0)
(3.38979 -3.76335e-19 0)
(3.39251 -3.72339e-19 0)
(3.3955 -3.67856e-19 0)
(3.39877 -3.62855e-19 0)
(3.40234 -3.57312e-19 0)
(3.4062 -3.51216e-19 0)
(3.41039 -3.4457e-19 0)
(3.4149 -3.37395e-19 0)
(3.41972 -3.29706e-19 0)
(3.42486 -3.21529e-19 0)
(3.43032 -3.12861e-19 0)
(3.43607 -3.03748e-19 0)
(3.44211 -2.94377e-19 0)
(3.44842 -2.849e-19 0)
(3.45497 -2.75523e-19 0)
(3.46176 -2.69175e-19 0)
(3.46875 -2.63038e-19 0)
(3.47593 -2.70999e-19 0)
(3.48328 -2.75711e-19 0)
(3.49077 -2.6262e-19 0)
(3.49839 -2.54868e-19 0)
(3.50611 -2.49897e-19 0)
(3.51393 -2.44852e-19 0)
(3.52181 -2.36723e-19 0)
(3.52974 -2.23452e-19 0)
(3.53772 -2.09438e-19 0)
(3.54572 -2.06284e-19 0)
(3.55373 -2.03702e-19 0)
(3.56175 -1.89607e-19 0)
(3.56975 -1.74114e-19 0)
(3.57773 -1.61678e-19 0)
(3.58567 -1.51418e-19 0)
(3.59358 -1.42871e-19 0)
(3.60143 -1.35565e-19 0)
(3.60922 -1.29057e-19 0)
(3.61694 -1.22918e-19 0)
(3.62459 -1.16721e-19 0)
(3.63215 -1.10087e-19 0)
(3.63963 -1.02442e-19 0)
(3.647 -9.53683e-20 0)
(3.65427 -8.68492e-20 0)
(3.66143 -7.97684e-20 0)
(3.66847 -7.55487e-20 0)
(3.67538 -7.09132e-20 0)
(3.68216 -6.76759e-20 0)
(3.6888 -7.12719e-20 0)
(3.69529 -7.37461e-20 0)
(3.70163 -6.69532e-20 0)
(3.7078 -5.78451e-20 0)
(3.7138 -5.03323e-20 0)
(3.71961 -5.12945e-20 0)
(3.72523 -5.02731e-20 0)
(3.73065 -3.94755e-20 0)
(3.73586 -3.15456e-20 0)
(3.74083 -3.04677e-20 0)
(3.74556 -3.30634e-20 0)
(3.75003 -3.66647e-20 0)
(3.75423 -3.84387e-20 0)
(3.75813 -3.51281e-20 0)
(3.76173 -2.99171e-20 0)
(3.76499 -3.49299e-20 0)
(3.7679 -4.00208e-20 0)
(3.77044 -3.32709e-20 0)
(3.77259 -2.529e-20 0)
(3.77433 -2.09672e-20 0)
(3.77564 -1.83361e-20 0)
(3.77651 -1.58004e-20 0)
(3.77691 -1.34321e-20 0)
(3.77684 -1.12012e-20 0)
(3.77628 -9.10721e-21 0)
(3.77523 -7.15101e-21 0)
(3.77367 -5.33335e-21 0)
(3.77161 -3.64397e-21 0)
(3.76904 -2.06611e-21 0)
(3.76596 -5.58197e-22 0)
(3.76238 9.03128e-22 0)
(3.7583 2.34789e-21 0)
(3.75372 3.83746e-21 0)
(3.74865 5.40987e-21 0)
(3.74311 7.10548e-21 0)
(3.73708 8.99072e-21 0)
(3.73059 1.10782e-20 0)
(3.72365 1.34266e-20 0)
(3.71625 1.60375e-20 0)
(3.70841 1.89018e-20 0)
(3.70013 2.20372e-20 0)
(3.69143 2.5436e-20 0)
(3.6823 2.89705e-20 0)
(3.67276 3.25586e-20 0)
(3.66281 3.60538e-20 0)
(3.65245 3.87227e-20 0)
(3.64169 4.41159e-20 0)
(3.63053 5.04767e-20 0)
(3.61898 3.02705e-20 0)
(3.60703 1.05745e-20 0)
(3.5947 1.51233e-20 0)
(3.58198 1.50278e-20 0)
(3.56887 1.01058e-20 0)
(3.55539 8.32613e-21 0)
(3.54152 1.19722e-20 0)
(3.52727 1.91339e-20 0)
(3.51264 2.6668e-20 0)
(3.49762 3.32093e-20 0)
(3.48223 3.88704e-20 0)
(3.46646 4.36853e-20 0)
(3.4503 4.77022e-20 0)
(3.43376 5.09795e-20 0)
(3.41683 5.35825e-20 0)
(3.39952 5.55815e-20 0)
(3.38182 5.6924e-20 0)
(3.36373 5.76789e-20 0)
(3.34525 5.79059e-20 0)
(3.32637 5.76535e-20 0)
(3.30709 5.69662e-20 0)
(3.2874 5.56881e-20 0)
(3.26731 5.5141e-20 0)
(3.24681 5.88994e-20 0)
(3.22589 6.24267e-20 0)
(3.20454 4.17275e-20 0)
(3.18277 2.3832e-20 0)
(3.16057 3.01854e-20 0)
(3.13792 3.5351e-20 0)
(3.11482 3.83116e-20 0)
(3.09126 4.07453e-20 0)
(3.06724 4.23058e-20 0)
(3.04274 4.32109e-20 0)
(3.01776 4.07786e-20 0)
(2.99227 4.36716e-20 0)
(2.96628 4.68248e-20 0)
(2.93976 4.40143e-20 0)
(2.9127 4.39584e-20 0)
(2.88509 4.47971e-20 0)
(2.8569 4.68606e-20 0)
(2.82812 4.93481e-20 0)
(2.79873 5.17619e-20 0)
(2.7687 5.46633e-20 0)
(2.73802 5.59515e-20 0)
(2.70664 4.28889e-20 0)
(2.67455 3.09401e-20 0)
(2.64171 3.51545e-20 0)
(2.60809 4.1435e-20 0)
(2.57363 4.63048e-20 0)
(2.53831 4.95917e-20 0)
(2.50207 5.20877e-20 0)
(2.46485 5.51665e-20 0)
(2.42659 5.9047e-20 0)
(2.38723 5.9509e-20 0)
(2.34668 4.28799e-20 0)
(2.30487 2.52179e-20 0)
(2.26168 2.22225e-20 0)
(2.21701 2.10834e-20 0)
(2.17072 1.85589e-20 0)
(2.12266 1.60214e-21 0)
(2.07266 -1.53856e-20 0)
(2.0205 -1.6293e-20 0)
(1.96596 -1.42261e-20 0)
(1.90872 -1.17294e-20 0)
(1.84845 -8.34848e-21 0)
(1.7847 -3.74191e-21 0)
(1.71695 1.01511e-21 0)
(1.64452 4.37059e-21 0)
(1.56654 -3.76287e-21 0)
(1.48187 -1.2603e-20 0)
(1.38898 -9.2672e-21 0)
(1.28573 -5.4035e-21 0)
(1.16905 -2.86468e-21 0)
(1.03438 -1.33534e-21 0)
(0.874834 -4.71105e-22 0)
(0.680556 -5.59755e-23 0)
(0.442141 -3.79023e-22 0)
(0.163675 4.27579e-22 0)
)
;

boundaryField
{
    top_wall
    {
        type            noSlip;
    }
    inlet
    {
        type            cyclic;
    }
    bot_wall
    {
        type            noSlip;
    }
    outlet
    {
        type            cyclic;
    }
    frontAndBack
    {
        type            empty;
    }
}


// ************************************************************************* //
