/*--------------------------------*- C++ -*----------------------------------*\
| =========                 |                                                 |
| \\      /  F ield         | OpenFOAM: The Open Source CFD Toolbox           |
|  \\    /   O peration     | Version:  2312                                  |
|   \\  /    A nd           | Website:  www.openfoam.com                      |
|    \\/     M anipulation  |                                                 |
\*---------------------------------------------------------------------------*/
FoamFile
{
    version     2.0;
    format      ascii;
    arch        "LSB;label=32;scalar=64";
    class       volScalarField;
    location    "13.92";
    object      k;
}
// * * * * * * * * * * * * * * * * * * * * * * * * * * * * * * * * * * * * * //

dimensions      [0 2 -2 0 0 0 0];

internalField   nonuniform List<scalar> 
1000
(
7.65407e-05
0.000105477
0.000627843
0.00180505
0.00311586
0.00414715
0.00489183
0.00542836
0.00581896
0.00610851
0.00632761
0.00649687
0.00663019
0.00673699
0.00682358
0.00689427
0.00695224
0.0069999
0.00703908
0.00707123
0.00709746
0.0071187
0.00713565
0.00714893
0.00715902
0.00716632
0.00717117
0.00717388
0.00717466
0.00717374
0.0071713
0.00716748
0.00716243
0.00715626
0.00714906
0.00714094
0.00713198
0.00712224
0.00711178
0.00710067
0.00708895
0.00707667
0.00706388
0.0070506
0.00703687
0.00702273
0.0070082
0.0069933
0.00697807
0.00696251
0.00694666
0.00693053
0.00691414
0.0068975
0.00688063
0.00686353
0.00684624
0.00682875
0.00681107
0.00679322
0.00677521
0.00675705
0.00673874
0.0067203
0.00670172
0.00668303
0.00666422
0.0066453
0.00662628
0.00660716
0.00658795
0.00656866
0.00654928
0.00652984
0.00651032
0.00649073
0.00647109
0.00645139
0.00643163
0.00641183
0.00639198
0.00637209
0.00635216
0.0063322
0.0063122
0.00629218
0.00627213
0.00625206
0.00623198
0.00621187
0.00619175
0.00617161
0.00615144
0.00613124
0.00611102
0.00609076
0.00607048
0.00605016
0.00602982
0.00600945
0.00598905
0.00596864
0.0059482
0.00592774
0.00590727
0.00588679
0.0058663
0.0058458
0.00582529
0.00580479
0.00578428
0.00576378
0.00574329
0.00572281
0.00570234
0.00568189
0.00566146
0.00564106
0.00562067
0.00560032
0.00558
0.00555971
0.00553945
0.00551924
0.00549906
0.00547893
0.00545884
0.00543879
0.00541879
0.00539883
0.00537892
0.00535904
0.00533921
0.00531941
0.00529964
0.00527991
0.00526021
0.00524055
0.00522092
0.00520132
0.00518176
0.00516224
0.00514275
0.00512331
0.0051039
0.00508453
0.0050652
0.00504591
0.00502667
0.00500746
0.0049883
0.00496918
0.0049501
0.00493107
0.00491208
0.00489314
0.00487425
0.0048554
0.0048366
0.00481785
0.00479914
0.00478049
0.00476188
0.00474333
0.00472483
0.00470638
0.00468798
0.00466963
0.00465134
0.0046331
0.00461491
0.00459678
0.00457871
0.00456069
0.00454273
0.00452483
0.00450698
0.00448919
0.00447146
0.00445379
0.00443619
0.00441864
0.00440115
0.00438373
0.00436636
0.00434906
0.00433183
0.00431465
0.00429755
0.0042805
0.00426352
0.00424661
0.00422977
0.00421299
0.00419628
0.00417964
0.00416306
0.00414656
0.00413012
0.00411376
0.00409746
0.00408124
0.00406509
0.00404901
0.004033
0.00401707
0.00400121
0.00398542
0.00396971
0.00395408
0.00393852
0.00392303
0.00390763
0.00389229
0.00387704
0.00386187
0.00384677
0.00383175
0.00381682
0.00380196
0.00378718
0.00377248
0.00375787
0.00374334
0.00372888
0.00371452
0.00370023
0.00368603
0.00367191
0.00365788
0.00364393
0.00363006
0.00361629
0.00360259
0.00358899
0.00357547
0.00356204
0.00354869
0.00353544
0.00352227
0.00350919
0.0034962
0.0034833
0.00347049
0.00345777
0.00344514
0.0034326
0.00342015
0.00340779
0.00339553
0.00338335
0.00337127
0.00335928
0.00334738
0.00333557
0.00332386
0.00331224
0.00330071
0.00328928
0.00327794
0.0032667
0.00325554
0.00324448
0.00323352
0.00322265
0.00321187
0.00320119
0.0031906
0.00318011
0.00316971
0.0031594
0.00314919
0.00313907
0.00312905
0.00311912
0.00310928
0.00309954
0.00308989
0.00308034
0.00307088
0.00306151
0.00305223
0.00304305
0.00303396
0.00302496
0.00301605
0.00300724
0.00299852
0.00298988
0.00298134
0.00297289
0.00296453
0.00295626
0.00294808
0.00293999
0.00293199
0.00292408
0.00291625
0.00290852
0.00290087
0.0028933
0.00288582
0.00287843
0.00287113
0.00286391
0.00285677
0.00284972
0.00284275
0.00283587
0.00282906
0.00282234
0.0028157
0.00280914
0.00280267
0.00279627
0.00278995
0.00278371
0.00277755
0.00277146
0.00276546
0.00275953
0.00275367
0.00274789
0.00274219
0.00273656
0.002731
0.00272552
0.00272011
0.00271477
0.0027095
0.0027043
0.00269917
0.00269412
0.00268913
0.0026842
0.00267935
0.00267456
0.00266984
0.00266519
0.00266059
0.00265607
0.00265161
0.00264721
0.00264287
0.0026386
0.00263438
0.00263023
0.00262614
0.0026221
0.00261813
0.00261421
0.00261036
0.00260655
0.00260281
0.00259912
0.00259549
0.00259191
0.00258838
0.00258491
0.00258149
0.00257812
0.00257481
0.00257155
0.00256833
0.00256517
0.00256205
0.00255899
0.00255597
0.002553
0.00255008
0.0025472
0.00254437
0.00254159
0.00253885
0.00253616
0.0025335
0.0025309
0.00252833
0.00252581
0.00252332
0.00252088
0.00251848
0.00251612
0.0025138
0.00251152
0.00250928
0.00250708
0.00250491
0.00250278
0.00250069
0.00249863
0.00249661
0.00249462
0.00249267
0.00249075
0.00248887
0.00248702
0.0024852
0.00248342
0.00248166
0.00247994
0.00247825
0.00247659
0.00247496
0.00247337
0.0024718
0.00247026
0.00246874
0.00246726
0.0024658
0.00246438
0.00246297
0.0024616
0.00246025
0.00245893
0.00245763
0.00245636
0.00245511
0.00245389
0.00245269
0.00245152
0.00245037
0.00244924
0.00244813
0.00244705
0.00244599
0.00244495
0.00244394
0.00244294
0.00244196
0.00244101
0.00244008
0.00243916
0.00243827
0.00243739
0.00243654
0.0024357
0.00243488
0.00243408
0.0024333
0.00243254
0.00243179
0.00243106
0.00243035
0.00242966
0.00242898
0.00242832
0.00242767
0.00242704
0.00242643
0.00242583
0.00242525
0.00242468
0.00242413
0.00242359
0.00242307
0.00242256
0.00242206
0.00242158
0.00242111
0.00242066
0.00242022
0.00241979
0.00241938
0.00241898
0.00241859
0.00241822
0.00241786
0.00241751
0.00241717
0.00241685
0.00241653
0.00241623
0.00241594
0.00241567
0.0024154
0.00241515
0.0024149
0.00241467
0.00241445
0.00241424
0.00241405
0.00241386
0.00241368
0.00241352
0.00241336
0.00241322
0.00241308
0.00241296
0.00241285
0.00241275
0.00241265
0.00241257
0.0024125
0.00241244
0.00241239
0.00241235
0.00241232
0.0024123
0.00241229
0.00241229
0.0024123
0.00241232
0.00241235
0.00241239
0.00241244
0.0024125
0.00241257
0.00241265
0.00241274
0.00241285
0.00241296
0.00241308
0.00241321
0.00241336
0.00241351
0.00241368
0.00241385
0.00241404
0.00241424
0.00241445
0.00241467
0.0024149
0.00241514
0.0024154
0.00241566
0.00241594
0.00241623
0.00241653
0.00241684
0.00241717
0.0024175
0.00241785
0.00241822
0.00241859
0.00241898
0.00241938
0.00241979
0.00242022
0.00242066
0.00242111
0.00242158
0.00242206
0.00242255
0.00242306
0.00242358
0.00242412
0.00242467
0.00242524
0.00242582
0.00242642
0.00242704
0.00242767
0.00242831
0.00242897
0.00242965
0.00243035
0.00243106
0.00243179
0.00243253
0.0024333
0.00243408
0.00243488
0.0024357
0.00243653
0.00243739
0.00243826
0.00243916
0.00244007
0.002441
0.00244196
0.00244293
0.00244393
0.00244495
0.00244599
0.00244705
0.00244813
0.00244923
0.00245036
0.00245151
0.00245269
0.00245388
0.00245511
0.00245635
0.00245763
0.00245892
0.00246024
0.00246159
0.00246297
0.00246437
0.0024658
0.00246725
0.00246874
0.00247025
0.00247179
0.00247336
0.00247496
0.00247659
0.00247825
0.00247994
0.00248166
0.00248341
0.00248519
0.00248701
0.00248886
0.00249074
0.00249266
0.00249461
0.0024966
0.00249862
0.00250068
0.00250277
0.0025049
0.00250707
0.00250927
0.00251151
0.0025138
0.00251612
0.00251847
0.00252087
0.00252332
0.0025258
0.00252832
0.00253089
0.00253349
0.00253615
0.00253884
0.00254158
0.00254436
0.00254719
0.00255007
0.00255299
0.00255596
0.00255898
0.00256204
0.00256516
0.00256832
0.00257154
0.0025748
0.00257811
0.00258148
0.0025849
0.00258837
0.0025919
0.00259548
0.00259911
0.0026028
0.00260655
0.00261035
0.00261421
0.00261812
0.0026221
0.00262613
0.00263022
0.00263437
0.00263859
0.00264286
0.0026472
0.0026516
0.00265606
0.00266059
0.00266518
0.00266983
0.00267456
0.00267934
0.0026842
0.00268912
0.00269411
0.00269917
0.0027043
0.00270949
0.00271476
0.0027201
0.00272551
0.002731
0.00273655
0.00274219
0.00274789
0.00275367
0.00275952
0.00276545
0.00277146
0.00277754
0.00278371
0.00278995
0.00279627
0.00280266
0.00280914
0.0028157
0.00282234
0.00282906
0.00283586
0.00284275
0.00284972
0.00285677
0.0028639
0.00287113
0.00287843
0.00288582
0.0028933
0.00290086
0.00290851
0.00291625
0.00292408
0.00293199
0.00293999
0.00294808
0.00295626
0.00296453
0.00297289
0.00298134
0.00298988
0.00299851
0.00300724
0.00301605
0.00302496
0.00303396
0.00304305
0.00305223
0.00306151
0.00307087
0.00308034
0.00308989
0.00309954
0.00310928
0.00311912
0.00312905
0.00313907
0.00314919
0.0031594
0.00316971
0.00318011
0.0031906
0.00320119
0.00321187
0.00322265
0.00323352
0.00324448
0.00325554
0.0032667
0.00327794
0.00328928
0.00330071
0.00331224
0.00332386
0.00333557
0.00334738
0.00335928
0.00337127
0.00338335
0.00339553
0.00340779
0.00342015
0.0034326
0.00344514
0.00345777
0.00347049
0.0034833
0.0034962
0.00350919
0.00352227
0.00353544
0.00354869
0.00356204
0.00357547
0.00358899
0.00360259
0.00361629
0.00363006
0.00364393
0.00365788
0.00367191
0.00368603
0.00370023
0.00371452
0.00372888
0.00374334
0.00375787
0.00377248
0.00378718
0.00380196
0.00381682
0.00383175
0.00384677
0.00386187
0.00387704
0.00389229
0.00390763
0.00392303
0.00393852
0.00395408
0.00396971
0.00398542
0.00400121
0.00401707
0.004033
0.00404901
0.00406509
0.00408124
0.00409746
0.00411376
0.00413012
0.00414656
0.00416306
0.00417964
0.00419628
0.00421299
0.00422977
0.00424661
0.00426352
0.0042805
0.00429755
0.00431465
0.00433183
0.00434906
0.00436636
0.00438373
0.00440115
0.00441864
0.00443619
0.00445379
0.00447146
0.00448919
0.00450698
0.00452482
0.00454273
0.00456069
0.00457871
0.00459678
0.00461491
0.0046331
0.00465134
0.00466963
0.00468798
0.00470637
0.00472483
0.00474333
0.00476188
0.00478049
0.00479914
0.00481785
0.0048366
0.0048554
0.00487425
0.00489314
0.00491208
0.00493107
0.0049501
0.00496918
0.0049883
0.00500746
0.00502667
0.00504591
0.0050652
0.00508453
0.0051039
0.00512331
0.00514275
0.00516224
0.00518176
0.00520132
0.00522091
0.00524054
0.00526021
0.00527991
0.00529964
0.00531941
0.00533921
0.00535904
0.00537892
0.00539883
0.00541879
0.00543879
0.00545884
0.00547893
0.00549906
0.00551924
0.00553945
0.00555971
0.00558
0.00560032
0.00562067
0.00564105
0.00566146
0.00568189
0.00570234
0.00572281
0.00574329
0.00576378
0.00578428
0.00580479
0.00582529
0.0058458
0.0058663
0.00588679
0.00590727
0.00592774
0.0059482
0.00596864
0.00598905
0.00600945
0.00602982
0.00605016
0.00607047
0.00609076
0.00611102
0.00613124
0.00615144
0.00617161
0.00619175
0.00621187
0.00623197
0.00625206
0.00627213
0.00629218
0.0063122
0.0063322
0.00635216
0.00637209
0.00639198
0.00641183
0.00643163
0.00645139
0.00647109
0.00649073
0.00651032
0.00652983
0.00654928
0.00656865
0.00658795
0.00660716
0.00662627
0.00664529
0.00666421
0.00668302
0.00670172
0.00672029
0.00673874
0.00675705
0.00677521
0.00679322
0.00681107
0.00682874
0.00684623
0.00686353
0.00688062
0.0068975
0.00691414
0.00693053
0.00694666
0.00696251
0.00697806
0.0069933
0.00700819
0.00702273
0.00703687
0.0070506
0.00706387
0.00707667
0.00708895
0.00710067
0.00711178
0.00712223
0.00713198
0.00714094
0.00714906
0.00715625
0.00716243
0.00716748
0.0071713
0.00717374
0.00717466
0.00717387
0.00717117
0.00716632
0.00715901
0.00714893
0.00713565
0.00711869
0.00709746
0.00707123
0.00703908
0.0069999
0.00695224
0.00689427
0.00682358
0.00673699
0.00663019
0.00649687
0.0063276
0.0061085
0.00581896
0.00542836
0.00489182
0.00414714
0.00311586
0.00180505
0.000627843
0.000105477
7.65406e-05
)
;

boundaryField
{
    top_wall
    {
        type            kLowReWallFunction;
        value           uniform 2.8403e-08;
    }
    inlet
    {
        type            cyclic;
    }
    bot_wall
    {
        type            kLowReWallFunction;
        value           uniform 2.84031e-08;
    }
    outlet
    {
        type            cyclic;
    }
    frontAndBack
    {
        type            empty;
    }
}


// ************************************************************************* //
