/*--------------------------------*- C++ -*----------------------------------*\
| =========                 |                                                 |
| \\      /  F ield         | OpenFOAM: The Open Source CFD Toolbox           |
|  \\    /   O peration     | Version:  2312                                  |
|   \\  /    A nd           | Website:  www.openfoam.com                      |
|    \\/     M anipulation  |                                                 |
\*---------------------------------------------------------------------------*/
FoamFile
{
    version     2.0;
    format      ascii;
    arch        "LSB;label=32;scalar=64";
    class       volScalarField;
    location    "13.92";
    object      nut;
}
// * * * * * * * * * * * * * * * * * * * * * * * * * * * * * * * * * * * * * //

dimensions      [0 2 -1 0 0 0 0];

internalField   nonuniform List<scalar> 
1000
(
1.91343e-08
1.50119e-07
2.38542e-06
1.21228e-05
3.05536e-05
5.37339e-05
7.93758e-05
0.000107564
0.000137805
0.000169649
0.000202681
0.000236419
0.000270026
0.000303218
0.000336581
0.000370049
0.000403568
0.000437097
0.0004706
0.000504049
0.000537421
0.000570696
0.000603857
0.00063689
0.000669784
0.000702527
0.000735111
0.000767528
0.000799771
0.000831835
0.000863715
0.000895406
0.000926904
0.000958205
0.000989307
0.00102021
0.0010509
0.00108139
0.00111167
0.00114174
0.0011716
0.00120125
0.00123068
0.00125989
0.00128889
0.00131768
0.00134624
0.00137459
0.00140272
0.00143062
0.00145831
0.00148578
0.00151303
0.00154005
0.00156686
0.00159344
0.0016198
0.00164594
0.00167185
0.00169755
0.00172301
0.00174826
0.00177328
0.00179808
0.00182266
0.00184701
0.00187113
0.00189504
0.00191872
0.00194217
0.0019654
0.0019884
0.00201118
0.00203373
0.00205606
0.00207816
0.00210004
0.00212169
0.00214311
0.00216431
0.00218528
0.00220602
0.00222653
0.00224682
0.00226688
0.00228671
0.00230631
0.00232568
0.00234482
0.00236373
0.00238166
0.00239854
0.00241467
0.00243027
0.00244549
0.00246045
0.00247523
0.00248986
0.00250439
0.00251885
0.00253325
0.0025476
0.00256192
0.00257621
0.00259047
0.00260472
0.00261895
0.00263316
0.00264737
0.00266156
0.00267575
0.00268994
0.00270412
0.00271829
0.00273247
0.00274663
0.0027608
0.00277495
0.00278909
0.0028032
0.00281729
0.00283133
0.00284532
0.00285922
0.00287303
0.0028867
0.00290019
0.00291344
0.0029264
0.00293897
0.00295104
0.00296248
0.00297311
0.00298265
0.00299192
0.00300099
0.00300987
0.00301855
0.00302703
0.00303532
0.00304342
0.00305132
0.00305904
0.00306656
0.00307389
0.00308104
0.003088
0.00309477
0.00310136
0.00310777
0.00311399
0.00312003
0.0031259
0.00313158
0.00313709
0.00314242
0.00314758
0.00315256
0.00315738
0.00316202
0.0031665
0.00317081
0.00317495
0.00317893
0.00318275
0.00318641
0.00318991
0.00319325
0.00319643
0.00319946
0.00320234
0.00320507
0.00320764
0.00321007
0.00321236
0.0032145
0.0032165
0.00321835
0.00322007
0.00322165
0.0032231
0.00322441
0.00322559
0.00322664
0.00322756
0.00322835
0.00322902
0.00322957
0.00323
0.00323031
0.00323049
0.00323057
0.00323053
0.00323038
0.00323012
0.00322975
0.00322927
0.00322869
0.003228
0.00322722
0.00322634
0.00322535
0.00322428
0.00322311
0.00322185
0.00322049
0.00321905
0.00321753
0.00321591
0.00321422
0.00321245
0.00321059
0.00320866
0.00320665
0.00320457
0.00320241
0.00320019
0.0031979
0.00319553
0.00319311
0.00319062
0.00318807
0.00318545
0.00318278
0.00318005
0.00317727
0.00317443
0.00317154
0.0031686
0.00316561
0.00316257
0.00315949
0.00315636
0.00315319
0.00314998
0.00314673
0.00314343
0.00314011
0.00313674
0.00313335
0.00312992
0.00312645
0.00312296
0.00311944
0.00311589
0.00311232
0.00310872
0.0031051
0.00310146
0.0030978
0.00309411
0.00309041
0.00308669
0.00308296
0.00307921
0.00307545
0.00307168
0.00306789
0.0030641
0.00306029
0.00305648
0.00305267
0.00304884
0.00304502
0.00304119
0.00303736
0.00303352
0.00302969
0.00302585
0.00302202
0.00301819
0.00301437
0.00301055
0.00300673
0.00300292
0.00299912
0.00299532
0.00299154
0.00298776
0.00298399
0.00298024
0.00297649
0.00297276
0.00296904
0.00296534
0.00296165
0.00295798
0.00295432
0.00295068
0.00294705
0.00294344
0.00293985
0.00293628
0.00293273
0.0029292
0.00292569
0.0029222
0.00291873
0.00291528
0.00291186
0.00290846
0.00290508
0.00290172
0.00289839
0.00289508
0.00289179
0.00288853
0.0028853
0.00288209
0.00287891
0.00287575
0.00287261
0.00286951
0.00286643
0.00286337
0.00286035
0.00285735
0.00285437
0.00285143
0.00284851
0.00284562
0.00284275
0.00283992
0.00283711
0.00283433
0.00283158
0.00282885
0.00282616
0.00282349
0.00282085
0.00281823
0.00281565
0.00281309
0.00281056
0.00280806
0.00280559
0.00280314
0.00280072
0.00279833
0.00279597
0.00279363
0.00279133
0.00278905
0.00278679
0.00278457
0.00278237
0.0027802
0.00277805
0.00277593
0.00277384
0.00277178
0.00276974
0.00276773
0.00276574
0.00276378
0.00276184
0.00275994
0.00275805
0.00275619
0.00275436
0.00275255
0.00275077
0.00274901
0.00274727
0.00274556
0.00274387
0.00274221
0.00274057
0.00273896
0.00273736
0.00273579
0.00273425
0.00273272
0.00273122
0.00272974
0.00272829
0.00272685
0.00272544
0.00272404
0.00272267
0.00272132
0.00272
0.00271869
0.0027174
0.00271613
0.00271488
0.00271366
0.00271245
0.00271126
0.00271009
0.00270894
0.00270781
0.0027067
0.0027056
0.00270452
0.00270347
0.00270242
0.0027014
0.0027004
0.00269941
0.00269844
0.00269748
0.00269654
0.00269562
0.00269472
0.00269383
0.00269295
0.00269209
0.00269125
0.00269042
0.00268961
0.00268881
0.00268803
0.00268726
0.00268651
0.00268577
0.00268504
0.00268433
0.00268363
0.00268295
0.00268228
0.00268162
0.00268097
0.00268034
0.00267972
0.00267911
0.00267851
0.00267793
0.00267736
0.0026768
0.00267625
0.00267571
0.00267519
0.00267467
0.00267417
0.00267368
0.00267319
0.00267272
0.00267226
0.00267181
0.00267137
0.00267094
0.00267052
0.00267011
0.00266971
0.00266932
0.00266893
0.00266856
0.0026682
0.00266784
0.0026675
0.00266716
0.00266683
0.00266651
0.0026662
0.0026659
0.00266561
0.00266532
0.00266504
0.00266477
0.00266451
0.00266426
0.00266401
0.00266377
0.00266354
0.00266332
0.0026631
0.00266289
0.00266269
0.00266249
0.0026623
0.00266212
0.00266195
0.00266178
0.00266162
0.00266147
0.00266132
0.00266118
0.00266105
0.00266092
0.0026608
0.00266069
0.00266058
0.00266048
0.00266038
0.00266029
0.00266021
0.00266013
0.00266006
0.00265999
0.00265994
0.00265988
0.00265984
0.0026598
0.00265976
0.00265973
0.00265971
0.00265969
0.00265968
0.00265967
0.00265967
0.00265968
0.00265969
0.00265971
0.00265973
0.00265976
0.0026598
0.00265984
0.00265988
0.00265994
0.00266
0.00266006
0.00266013
0.00266021
0.00266029
0.00266038
0.00266048
0.00266058
0.00266069
0.0026608
0.00266092
0.00266105
0.00266118
0.00266132
0.00266147
0.00266162
0.00266178
0.00266195
0.00266212
0.00266231
0.00266249
0.00266269
0.00266289
0.0026631
0.00266332
0.00266354
0.00266377
0.00266401
0.00266426
0.00266451
0.00266477
0.00266504
0.00266532
0.00266561
0.0026659
0.0026662
0.00266651
0.00266683
0.00266716
0.0026675
0.00266784
0.0026682
0.00266856
0.00266893
0.00266932
0.00266971
0.00267011
0.00267052
0.00267094
0.00267137
0.00267181
0.00267226
0.00267272
0.00267319
0.00267367
0.00267417
0.00267467
0.00267518
0.00267571
0.00267625
0.0026768
0.00267736
0.00267793
0.00267851
0.00267911
0.00267972
0.00268034
0.00268097
0.00268161
0.00268227
0.00268295
0.00268363
0.00268433
0.00268504
0.00268577
0.00268651
0.00268726
0.00268803
0.00268881
0.00268961
0.00269042
0.00269125
0.00269209
0.00269295
0.00269382
0.00269471
0.00269562
0.00269654
0.00269748
0.00269844
0.00269941
0.0027004
0.0027014
0.00270242
0.00270346
0.00270452
0.0027056
0.00270669
0.00270781
0.00270894
0.00271009
0.00271126
0.00271245
0.00271366
0.00271488
0.00271613
0.0027174
0.00271869
0.00272
0.00272132
0.00272267
0.00272404
0.00272544
0.00272685
0.00272829
0.00272974
0.00273122
0.00273272
0.00273425
0.00273579
0.00273736
0.00273896
0.00274057
0.00274221
0.00274387
0.00274556
0.00274727
0.00274901
0.00275077
0.00275255
0.00275436
0.00275619
0.00275805
0.00275993
0.00276184
0.00276378
0.00276574
0.00276772
0.00276974
0.00277178
0.00277384
0.00277593
0.00277805
0.00278019
0.00278237
0.00278456
0.00278679
0.00278904
0.00279132
0.00279363
0.00279597
0.00279833
0.00280072
0.00280314
0.00280558
0.00280805
0.00281056
0.00281308
0.00281564
0.00281823
0.00282084
0.00282348
0.00282615
0.00282885
0.00283157
0.00283432
0.0028371
0.00283991
0.00284275
0.00284561
0.0028485
0.00285142
0.00285436
0.00285734
0.00286034
0.00286336
0.00286642
0.0028695
0.0028726
0.00287574
0.0028789
0.00288208
0.00288529
0.00288852
0.00289178
0.00289507
0.00289838
0.00290171
0.00290507
0.00290845
0.00291185
0.00291527
0.00291872
0.00292219
0.00292568
0.00292919
0.00293272
0.00293627
0.00293984
0.00294343
0.00294704
0.00295066
0.00295431
0.00295796
0.00296164
0.00296533
0.00296903
0.00297275
0.00297648
0.00298022
0.00298398
0.00298775
0.00299152
0.00299531
0.0029991
0.00300291
0.00300672
0.00301053
0.00301435
0.00301818
0.00302201
0.00302584
0.00302967
0.00303351
0.00303734
0.00304117
0.003045
0.00304883
0.00305265
0.00305647
0.00306028
0.00306408
0.00306788
0.00307166
0.00307544
0.0030792
0.00308295
0.00308668
0.0030904
0.0030941
0.00309778
0.00310144
0.00310509
0.00310871
0.00311231
0.00311588
0.00311943
0.00312295
0.00312644
0.0031299
0.00313333
0.00313673
0.00314009
0.00314342
0.00314671
0.00314996
0.00315318
0.00315635
0.00315948
0.00316256
0.0031656
0.00316859
0.00317153
0.00317442
0.00317726
0.00318004
0.00318277
0.00318544
0.00318805
0.00319061
0.0031931
0.00319552
0.00319788
0.00320018
0.0032024
0.00320456
0.00320664
0.00320865
0.00321058
0.00321243
0.00321421
0.0032159
0.00321752
0.00321904
0.00322048
0.00322183
0.0032231
0.00322427
0.00322534
0.00322633
0.00322721
0.00322799
0.00322868
0.00322926
0.00322974
0.00323011
0.00323037
0.00323052
0.00323056
0.00323049
0.0032303
0.00322999
0.00322956
0.00322902
0.00322835
0.00322755
0.00322663
0.00322558
0.0032244
0.00322309
0.00322164
0.00322006
0.00321834
0.00321649
0.00321449
0.00321235
0.00321007
0.00320764
0.00320506
0.00320233
0.00319945
0.00319642
0.00319324
0.0031899
0.0031864
0.00318274
0.00317893
0.00317495
0.0031708
0.00316649
0.00316202
0.00315737
0.00315256
0.00314757
0.00314241
0.00313708
0.00313157
0.00312589
0.00312003
0.00311398
0.00310776
0.00310135
0.00309477
0.00308799
0.00308103
0.00307389
0.00306655
0.00305903
0.00305132
0.00304341
0.00303532
0.00302703
0.00301854
0.00300986
0.00300099
0.00299192
0.00298265
0.00297311
0.00296247
0.00295104
0.00293897
0.0029264
0.00291344
0.00290019
0.0028867
0.00287303
0.00285922
0.00284532
0.00283133
0.00281729
0.0028032
0.00278909
0.00277495
0.0027608
0.00274664
0.00273247
0.00271829
0.00270412
0.00268994
0.00267575
0.00266156
0.00264737
0.00263316
0.00261895
0.00260472
0.00259047
0.00257621
0.00256192
0.0025476
0.00253324
0.00251885
0.00250439
0.00248986
0.00247522
0.00246045
0.00244549
0.00243027
0.00241466
0.00239854
0.00238166
0.00236373
0.00234482
0.00232568
0.00230631
0.00228671
0.00226688
0.00224682
0.00222653
0.00220602
0.00218528
0.00216431
0.00214311
0.00212169
0.00210004
0.00207816
0.00205606
0.00203373
0.00201118
0.0019884
0.0019654
0.00194217
0.00191871
0.00189504
0.00187113
0.00184701
0.00182266
0.00179808
0.00177328
0.00174826
0.00172301
0.00169754
0.00167185
0.00164594
0.0016198
0.00159344
0.00156686
0.00154005
0.00151303
0.00148578
0.00145831
0.00143062
0.00140272
0.00137459
0.00134624
0.00131768
0.00128889
0.00125989
0.00123068
0.00120124
0.0011716
0.00114174
0.00111167
0.00108139
0.0010509
0.00102021
0.000989307
0.000958205
0.000926903
0.000895406
0.000863715
0.000831835
0.000799771
0.000767528
0.000735111
0.000702527
0.000669784
0.00063689
0.000603857
0.000570696
0.000537421
0.000504049
0.0004706
0.000437096
0.000403568
0.000370048
0.000336581
0.000303218
0.000270026
0.000236419
0.000202681
0.000169649
0.000137804
0.000107564
7.93758e-05
5.37339e-05
3.05535e-05
1.21228e-05
2.38541e-06
1.50119e-07
1.91342e-08
)
;

boundaryField
{
    top_wall
    {
        type            nutLowReWallFunction;
        value           uniform 0;
    }
    inlet
    {
        type            cyclic;
    }
    bot_wall
    {
        type            nutLowReWallFunction;
        value           uniform 0;
    }
    outlet
    {
        type            cyclic;
    }
    frontAndBack
    {
        type            empty;
    }
}


// ************************************************************************* //
