/*--------------------------------*- C++ -*----------------------------------*\
| =========                 |                                                 |
| \\      /  F ield         | OpenFOAM: The Open Source CFD Toolbox           |
|  \\    /   O peration     | Version:  2312                                  |
|   \\  /    A nd           | Website:  www.openfoam.com                      |
|    \\/     M anipulation  |                                                 |
\*---------------------------------------------------------------------------*/
FoamFile
{
    version     2.0;
    format      ascii;
    arch        "LSB;label=32;scalar=64";
    class       volVectorField;
    location    "13.92";
    object      U;
}
// * * * * * * * * * * * * * * * * * * * * * * * * * * * * * * * * * * * * * //

dimensions      [0 1 -1 0 0 0 0];

internalField   nonuniform List<vector> 
1000
(
(0.049805 1.29203e-18 0)
(0.149044 4.45463e-18 0)
(0.245794 3.8356e-18 0)
(0.332249 3.71377e-18 0)
(0.401493 3.6553e-18 0)
(0.45499 3.66006e-18 0)
(0.497195 3.6743e-18 0)
(0.531411 3.76302e-18 0)
(0.559778 3.82169e-18 0)
(0.583772 3.8108e-18 0)
(0.604427 3.89008e-18 0)
(0.622484 3.97922e-18 0)
(0.638502 3.98388e-18 0)
(0.6529 3.96146e-18 0)
(0.665974 3.87349e-18 0)
(0.677938 3.79381e-18 0)
(0.688961 3.81749e-18 0)
(0.699175 3.86501e-18 0)
(0.708689 3.89247e-18 0)
(0.71759 3.90975e-18 0)
(0.725951 3.92044e-18 0)
(0.733834 3.92694e-18 0)
(0.741288 3.93085e-18 0)
(0.748358 3.93321e-18 0)
(0.755081 3.93472e-18 0)
(0.761489 3.93579e-18 0)
(0.767611 3.93668e-18 0)
(0.773471 3.93756e-18 0)
(0.77909 3.93849e-18 0)
(0.784488 3.93951e-18 0)
(0.789681 3.94063e-18 0)
(0.794684 3.94183e-18 0)
(0.799512 3.94309e-18 0)
(0.804175 3.94439e-18 0)
(0.808685 3.9457e-18 0)
(0.813051 3.947e-18 0)
(0.817284 3.94827e-18 0)
(0.82139 3.94948e-18 0)
(0.825377 3.95063e-18 0)
(0.829252 3.95171e-18 0)
(0.833021 3.95269e-18 0)
(0.83669 3.95359e-18 0)
(0.840265 3.95439e-18 0)
(0.843749 3.9551e-18 0)
(0.847148 3.95571e-18 0)
(0.850466 3.95622e-18 0)
(0.853706 3.95665e-18 0)
(0.856873 3.95698e-18 0)
(0.859969 3.95723e-18 0)
(0.862998 3.9574e-18 0)
(0.865962 3.95749e-18 0)
(0.868865 3.95751e-18 0)
(0.871709 3.95746e-18 0)
(0.874496 3.95734e-18 0)
(0.877229 3.95716e-18 0)
(0.87991 3.95692e-18 0)
(0.882541 3.95663e-18 0)
(0.885123 3.95628e-18 0)
(0.887659 3.95589e-18 0)
(0.89015 3.95545e-18 0)
(0.892597 3.95496e-18 0)
(0.895004 3.95444e-18 0)
(0.89737 3.95388e-18 0)
(0.899697 3.95328e-18 0)
(0.901986 3.95265e-18 0)
(0.904239 3.95199e-18 0)
(0.906457 3.95131e-18 0)
(0.908641 3.9506e-18 0)
(0.910792 3.94986e-18 0)
(0.912911 3.94911e-18 0)
(0.914999 3.94834e-18 0)
(0.917057 3.94755e-18 0)
(0.919086 3.94675e-18 0)
(0.921086 3.94594e-18 0)
(0.923059 3.94513e-18 0)
(0.925005 3.94431e-18 0)
(0.926925 3.94349e-18 0)
(0.92882 3.94266e-18 0)
(0.930691 3.94184e-18 0)
(0.932537 3.94103e-18 0)
(0.93436 3.94022e-18 0)
(0.936161 3.93942e-18 0)
(0.937939 3.93864e-18 0)
(0.939696 3.93786e-18 0)
(0.941431 3.9371e-18 0)
(0.943147 3.93635e-18 0)
(0.944842 3.93562e-18 0)
(0.946518 3.93491e-18 0)
(0.948175 3.93421e-18 0)
(0.949813 3.93353e-18 0)
(0.951433 3.93287e-18 0)
(0.953037 3.93223e-18 0)
(0.954624 3.93161e-18 0)
(0.956195 3.931e-18 0)
(0.957752 3.93041e-18 0)
(0.959294 3.92983e-18 0)
(0.960822 3.92926e-18 0)
(0.962335 3.92871e-18 0)
(0.963835 3.92818e-18 0)
(0.965321 3.92766e-18 0)
(0.966793 3.92717e-18 0)
(0.968252 3.92669e-18 0)
(0.969698 3.92625e-18 0)
(0.971131 3.92584e-18 0)
(0.972552 3.92548e-18 0)
(0.973959 3.92517e-18 0)
(0.975354 3.92494e-18 0)
(0.976737 3.92478e-18 0)
(0.978107 3.92471e-18 0)
(0.979465 3.92474e-18 0)
(0.980811 3.92489e-18 0)
(0.982146 3.92514e-18 0)
(0.983468 3.9255e-18 0)
(0.984779 3.92594e-18 0)
(0.986079 3.92642e-18 0)
(0.987367 3.92687e-18 0)
(0.988644 3.9272e-18 0)
(0.98991 3.92726e-18 0)
(0.991165 3.92687e-18 0)
(0.992409 3.92577e-18 0)
(0.993642 3.92363e-18 0)
(0.994865 3.92005e-18 0)
(0.996077 3.91487e-18 0)
(0.997279 3.90748e-18 0)
(0.998471 3.89748e-18 0)
(0.999652 3.88404e-18 0)
(1.00082 3.86655e-18 0)
(1.00199 3.84392e-18 0)
(1.00314 3.81528e-18 0)
(1.00428 3.77958e-18 0)
(1.00542 3.73602e-18 0)
(1.00654 3.6833e-18 0)
(1.00766 3.62044e-18 0)
(1.00877 3.54609e-18 0)
(1.00987 3.45883e-18 0)
(1.01097 3.35727e-18 0)
(1.01205 3.23997e-18 0)
(1.01313 3.23998e-18 0)
(1.0142 3.36471e-18 0)
(1.01527 3.51831e-18 0)
(1.01633 3.36941e-18 0)
(1.01738 3.09387e-18 0)
(1.01842 3.00073e-18 0)
(1.01946 2.89589e-18 0)
(1.02049 2.80735e-18 0)
(1.02152 2.73146e-18 0)
(1.02253 2.66639e-18 0)
(1.02355 2.61084e-18 0)
(1.02455 2.56324e-18 0)
(1.02555 2.52273e-18 0)
(1.02654 2.48819e-18 0)
(1.02753 2.45856e-18 0)
(1.02851 2.43286e-18 0)
(1.02949 2.41023e-18 0)
(1.03046 2.38992e-18 0)
(1.03142 2.3713e-18 0)
(1.03238 2.35356e-18 0)
(1.03333 2.33634e-18 0)
(1.03428 2.31906e-18 0)
(1.03522 2.30128e-18 0)
(1.03616 2.28294e-18 0)
(1.03709 2.26378e-18 0)
(1.03802 2.24364e-18 0)
(1.03894 2.22238e-18 0)
(1.03985 2.19997e-18 0)
(1.04076 2.17639e-18 0)
(1.04167 2.15166e-18 0)
(1.04257 2.12483e-18 0)
(1.04347 2.10797e-18 0)
(1.04436 2.10507e-18 0)
(1.04524 2.04681e-18 0)
(1.04612 1.87301e-18 0)
(1.047 1.69798e-18 0)
(1.04787 1.63677e-18 0)
(1.04874 1.62764e-18 0)
(1.0496 1.61355e-18 0)
(1.05046 1.5988e-18 0)
(1.05132 1.58309e-18 0)
(1.05217 1.56643e-18 0)
(1.05301 1.54883e-18 0)
(1.05385 1.53029e-18 0)
(1.05469 1.51081e-18 0)
(1.05552 1.4904e-18 0)
(1.05635 1.46905e-18 0)
(1.05718 1.4468e-18 0)
(1.058 1.42367e-18 0)
(1.05881 1.39972e-18 0)
(1.05963 1.37502e-18 0)
(1.06043 1.34968e-18 0)
(1.06124 1.32383e-18 0)
(1.06204 1.29766e-18 0)
(1.06283 1.27138e-18 0)
(1.06363 1.24494e-18 0)
(1.06442 1.21863e-18 0)
(1.0652 1.19275e-18 0)
(1.06598 1.16766e-18 0)
(1.06676 1.14376e-18 0)
(1.06753 1.1216e-18 0)
(1.0683 1.10221e-18 0)
(1.06907 1.08737e-18 0)
(1.06983 1.07858e-18 0)
(1.07059 1.09389e-18 0)
(1.07135 1.08684e-18 0)
(1.0721 8.6009e-19 0)
(1.07285 6.34852e-19 0)
(1.07359 6.19548e-19 0)
(1.07433 6.17843e-19 0)
(1.07507 5.83508e-19 0)
(1.07581 5.33281e-19 0)
(1.07654 4.81307e-19 0)
(1.07726 4.28352e-19 0)
(1.07799 3.75464e-19 0)
(1.07871 3.23158e-19 0)
(1.07943 2.71827e-19 0)
(1.08014 2.21789e-19 0)
(1.08085 1.73314e-19 0)
(1.08156 1.26636e-19 0)
(1.08226 8.18004e-20 0)
(1.08296 3.89695e-20 0)
(1.08366 -1.74048e-21 0)
(1.08436 -4.02563e-20 0)
(1.08505 -7.65437e-20 0)
(1.08574 -1.10603e-19 0)
(1.08642 -1.42461e-19 0)
(1.0871 -1.72169e-19 0)
(1.08778 -1.99808e-19 0)
(1.08846 -2.25319e-19 0)
(1.08913 -2.4881e-19 0)
(1.0898 -2.70401e-19 0)
(1.09047 -2.90221e-19 0)
(1.09113 -3.08399e-19 0)
(1.09179 -3.24917e-19 0)
(1.09245 -3.39917e-19 0)
(1.0931 -3.53538e-19 0)
(1.09375 -3.65907e-19 0)
(1.0944 -3.76998e-19 0)
(1.09504 -3.86938e-19 0)
(1.09568 -3.95847e-19 0)
(1.09632 -4.03836e-19 0)
(1.09696 -4.11004e-19 0)
(1.09759 -4.17444e-19 0)
(1.09822 -4.2309e-19 0)
(1.09885 -4.28033e-19 0)
(1.09947 -4.32353e-19 0)
(1.10009 -4.36124e-19 0)
(1.10071 -4.39411e-19 0)
(1.10132 -4.42272e-19 0)
(1.10193 -4.44758e-19 0)
(1.10254 -4.46911e-19 0)
(1.10315 -4.48765e-19 0)
(1.10375 -4.5036e-19 0)
(1.10435 -4.51743e-19 0)
(1.10495 -4.52798e-19 0)
(1.10554 -4.53569e-19 0)
(1.10613 -4.54095e-19 0)
(1.10672 -4.54407e-19 0)
(1.10731 -4.54536e-19 0)
(1.10789 -4.54505e-19 0)
(1.10847 -4.54337e-19 0)
(1.10905 -4.5405e-19 0)
(1.10962 -4.53661e-19 0)
(1.11019 -4.53184e-19 0)
(1.11076 -4.52632e-19 0)
(1.11132 -4.52016e-19 0)
(1.11189 -4.51345e-19 0)
(1.11245 -4.50626e-19 0)
(1.113 -4.49868e-19 0)
(1.11356 -4.49075e-19 0)
(1.11411 -4.48253e-19 0)
(1.11465 -4.47405e-19 0)
(1.1152 -4.46535e-19 0)
(1.11574 -4.45647e-19 0)
(1.11628 -4.44742e-19 0)
(1.11682 -4.43821e-19 0)
(1.11735 -4.42888e-19 0)
(1.11788 -4.41941e-19 0)
(1.11841 -4.40984e-19 0)
(1.11893 -4.40015e-19 0)
(1.11946 -4.39035e-19 0)
(1.11997 -4.38046e-19 0)
(1.12049 -4.37045e-19 0)
(1.121 -4.36035e-19 0)
(1.12152 -4.35014e-19 0)
(1.12202 -4.33982e-19 0)
(1.12253 -4.3294e-19 0)
(1.12303 -4.31886e-19 0)
(1.12353 -4.30821e-19 0)
(1.12403 -4.29744e-19 0)
(1.12452 -4.28655e-19 0)
(1.12501 -4.27555e-19 0)
(1.1255 -4.26441e-19 0)
(1.12598 -4.25316e-19 0)
(1.12647 -4.24177e-19 0)
(1.12695 -4.23026e-19 0)
(1.12742 -4.21862e-19 0)
(1.1279 -4.20685e-19 0)
(1.12837 -4.19494e-19 0)
(1.12884 -4.18291e-19 0)
(1.1293 -4.17075e-19 0)
(1.12976 -4.15846e-19 0)
(1.13022 -4.14604e-19 0)
(1.13068 -4.1335e-19 0)
(1.13114 -4.12083e-19 0)
(1.13159 -4.10804e-19 0)
(1.13204 -4.09513e-19 0)
(1.13248 -4.08211e-19 0)
(1.13292 -4.06898e-19 0)
(1.13336 -4.05573e-19 0)
(1.1338 -4.04239e-19 0)
(1.13424 -4.02894e-19 0)
(1.13467 -4.01539e-19 0)
(1.1351 -4.00175e-19 0)
(1.13552 -3.98802e-19 0)
(1.13595 -3.97421e-19 0)
(1.13637 -3.96032e-19 0)
(1.13679 -3.94636e-19 0)
(1.1372 -3.93233e-19 0)
(1.13761 -3.91823e-19 0)
(1.13802 -3.90408e-19 0)
(1.13843 -3.88987e-19 0)
(1.13883 -3.87561e-19 0)
(1.13923 -3.8613e-19 0)
(1.13963 -3.84696e-19 0)
(1.14003 -3.83258e-19 0)
(1.14042 -3.81818e-19 0)
(1.14081 -3.80374e-19 0)
(1.1412 -3.78929e-19 0)
(1.14158 -3.77483e-19 0)
(1.14197 -3.76035e-19 0)
(1.14235 -3.74586e-19 0)
(1.14272 -3.73137e-19 0)
(1.1431 -3.71689e-19 0)
(1.14347 -3.70241e-19 0)
(1.14384 -3.68794e-19 0)
(1.1442 -3.67348e-19 0)
(1.14456 -3.65904e-19 0)
(1.14492 -3.64462e-19 0)
(1.14528 -3.63023e-19 0)
(1.14564 -3.61586e-19 0)
(1.14599 -3.60152e-19 0)
(1.14634 -3.58721e-19 0)
(1.14669 -3.57294e-19 0)
(1.14703 -3.55871e-19 0)
(1.14737 -3.54452e-19 0)
(1.14771 -3.53037e-19 0)
(1.14805 -3.51627e-19 0)
(1.14838 -3.50221e-19 0)
(1.14871 -3.4882e-19 0)
(1.14904 -3.47424e-19 0)
(1.14936 -3.46033e-19 0)
(1.14969 -3.44648e-19 0)
(1.15001 -3.43267e-19 0)
(1.15032 -3.41893e-19 0)
(1.15064 -3.40524e-19 0)
(1.15095 -3.3916e-19 0)
(1.15126 -3.37802e-19 0)
(1.15157 -3.3645e-19 0)
(1.15187 -3.35104e-19 0)
(1.15218 -3.33764e-19 0)
(1.15248 -3.32429e-19 0)
(1.15277 -3.31101e-19 0)
(1.15307 -3.29778e-19 0)
(1.15336 -3.28461e-19 0)
(1.15365 -3.2715e-19 0)
(1.15393 -3.25844e-19 0)
(1.15422 -3.24545e-19 0)
(1.1545 -3.23251e-19 0)
(1.15478 -3.21963e-19 0)
(1.15506 -3.2068e-19 0)
(1.15533 -3.19403e-19 0)
(1.1556 -3.18131e-19 0)
(1.15587 -3.16865e-19 0)
(1.15614 -3.15604e-19 0)
(1.1564 -3.14348e-19 0)
(1.15666 -3.13097e-19 0)
(1.15692 -3.11851e-19 0)
(1.15718 -3.1061e-19 0)
(1.15743 -3.09374e-19 0)
(1.15768 -3.08143e-19 0)
(1.15793 -3.06916e-19 0)
(1.15818 -3.05694e-19 0)
(1.15842 -3.04476e-19 0)
(1.15867 -3.03262e-19 0)
(1.15891 -3.02052e-19 0)
(1.15914 -3.00847e-19 0)
(1.15938 -2.99645e-19 0)
(1.15961 -2.98447e-19 0)
(1.15984 -2.97252e-19 0)
(1.16007 -2.96061e-19 0)
(1.16029 -2.94874e-19 0)
(1.16052 -2.9369e-19 0)
(1.16074 -2.92508e-19 0)
(1.16096 -2.9133e-19 0)
(1.16117 -2.90155e-19 0)
(1.16138 -2.88983e-19 0)
(1.1616 -2.87813e-19 0)
(1.1618 -2.86646e-19 0)
(1.16201 -2.85482e-19 0)
(1.16222 -2.8432e-19 0)
(1.16242 -2.8316e-19 0)
(1.16262 -2.82002e-19 0)
(1.16281 -2.80846e-19 0)
(1.16301 -2.79693e-19 0)
(1.1632 -2.78541e-19 0)
(1.16339 -2.77391e-19 0)
(1.16358 -2.76242e-19 0)
(1.16377 -2.75095e-19 0)
(1.16395 -2.7395e-19 0)
(1.16413 -2.72806e-19 0)
(1.16431 -2.71664e-19 0)
(1.16449 -2.70523e-19 0)
(1.16466 -2.69382e-19 0)
(1.16484 -2.68244e-19 0)
(1.16501 -2.67106e-19 0)
(1.16518 -2.65969e-19 0)
(1.16534 -2.64833e-19 0)
(1.16551 -2.63698e-19 0)
(1.16567 -2.62563e-19 0)
(1.16583 -2.6143e-19 0)
(1.16599 -2.60297e-19 0)
(1.16614 -2.59165e-19 0)
(1.1663 -2.58033e-19 0)
(1.16645 -2.56903e-19 0)
(1.1666 -2.55772e-19 0)
(1.16674 -2.54642e-19 0)
(1.16689 -2.53513e-19 0)
(1.16703 -2.52384e-19 0)
(1.16717 -2.51255e-19 0)
(1.16731 -2.50127e-19 0)
(1.16745 -2.49e-19 0)
(1.16758 -2.47872e-19 0)
(1.16771 -2.46745e-19 0)
(1.16784 -2.45618e-19 0)
(1.16797 -2.44492e-19 0)
(1.1681 -2.43366e-19 0)
(1.16822 -2.4224e-19 0)
(1.16834 -2.41115e-19 0)
(1.16846 -2.3999e-19 0)
(1.16858 -2.38865e-19 0)
(1.1687 -2.3774e-19 0)
(1.16881 -2.36616e-19 0)
(1.16892 -2.35492e-19 0)
(1.16903 -2.34368e-19 0)
(1.16914 -2.33245e-19 0)
(1.16925 -2.32122e-19 0)
(1.16935 -2.30999e-19 0)
(1.16945 -2.29877e-19 0)
(1.16955 -2.28755e-19 0)
(1.16965 -2.27634e-19 0)
(1.16975 -2.26513e-19 0)
(1.16984 -2.25393e-19 0)
(1.16993 -2.24272e-19 0)
(1.17002 -2.23153e-19 0)
(1.17011 -2.22034e-19 0)
(1.1702 -2.20916e-19 0)
(1.17028 -2.19798e-19 0)
(1.17036 -2.18681e-19 0)
(1.17044 -2.17564e-19 0)
(1.17052 -2.16448e-19 0)
(1.1706 -2.15333e-19 0)
(1.17067 -2.14219e-19 0)
(1.17075 -2.13105e-19 0)
(1.17082 -2.11992e-19 0)
(1.17089 -2.1088e-19 0)
(1.17095 -2.09769e-19 0)
(1.17102 -2.08659e-19 0)
(1.17108 -2.0755e-19 0)
(1.17114 -2.06442e-19 0)
(1.1712 -2.05334e-19 0)
(1.17126 -2.04228e-19 0)
(1.17132 -2.03124e-19 0)
(1.17137 -2.0202e-19 0)
(1.17142 -2.00917e-19 0)
(1.17147 -1.99816e-19 0)
(1.17152 -1.98716e-19 0)
(1.17157 -1.97617e-19 0)
(1.17161 -1.9652e-19 0)
(1.17165 -1.95424e-19 0)
(1.17169 -1.9433e-19 0)
(1.17173 -1.93237e-19 0)
(1.17177 -1.92145e-19 0)
(1.1718 -1.91056e-19 0)
(1.17184 -1.89967e-19 0)
(1.17187 -1.88881e-19 0)
(1.1719 -1.87796e-19 0)
(1.17193 -1.86713e-19 0)
(1.17195 -1.85632e-19 0)
(1.17198 -1.84552e-19 0)
(1.172 -1.83475e-19 0)
(1.17202 -1.82399e-19 0)
(1.17204 -1.81326e-19 0)
(1.17205 -1.80254e-19 0)
(1.17207 -1.79184e-19 0)
(1.17208 -1.78117e-19 0)
(1.17209 -1.77051e-19 0)
(1.1721 -1.75988e-19 0)
(1.17211 -1.74927e-19 0)
(1.17211 -1.73868e-19 0)
(1.17212 -1.72812e-19 0)
(1.17212 -1.71757e-19 0)
(1.17212 -1.70704e-19 0)
(1.17212 -1.69652e-19 0)
(1.17211 -1.68602e-19 0)
(1.17211 -1.67555e-19 0)
(1.1721 -1.6651e-19 0)
(1.17209 -1.65467e-19 0)
(1.17208 -1.64427e-19 0)
(1.17207 -1.6339e-19 0)
(1.17205 -1.62355e-19 0)
(1.17204 -1.61323e-19 0)
(1.17202 -1.60293e-19 0)
(1.172 -1.59267e-19 0)
(1.17198 -1.58243e-19 0)
(1.17195 -1.57222e-19 0)
(1.17193 -1.56204e-19 0)
(1.1719 -1.55189e-19 0)
(1.17187 -1.54176e-19 0)
(1.17184 -1.53167e-19 0)
(1.1718 -1.52161e-19 0)
(1.17177 -1.51158e-19 0)
(1.17173 -1.50158e-19 0)
(1.17169 -1.49161e-19 0)
(1.17165 -1.48167e-19 0)
(1.17161 -1.47177e-19 0)
(1.17157 -1.46189e-19 0)
(1.17152 -1.45205e-19 0)
(1.17147 -1.44224e-19 0)
(1.17142 -1.43247e-19 0)
(1.17137 -1.42273e-19 0)
(1.17132 -1.41302e-19 0)
(1.17126 -1.40334e-19 0)
(1.1712 -1.3937e-19 0)
(1.17114 -1.3841e-19 0)
(1.17108 -1.37452e-19 0)
(1.17102 -1.36499e-19 0)
(1.17095 -1.35548e-19 0)
(1.17089 -1.34602e-19 0)
(1.17082 -1.33659e-19 0)
(1.17075 -1.32719e-19 0)
(1.17067 -1.31783e-19 0)
(1.1706 -1.30851e-19 0)
(1.17052 -1.29922e-19 0)
(1.17044 -1.28997e-19 0)
(1.17036 -1.28076e-19 0)
(1.17028 -1.27158e-19 0)
(1.1702 -1.26244e-19 0)
(1.17011 -1.25334e-19 0)
(1.17002 -1.24427e-19 0)
(1.16993 -1.23524e-19 0)
(1.16984 -1.22625e-19 0)
(1.16975 -1.2173e-19 0)
(1.16965 -1.20839e-19 0)
(1.16955 -1.19951e-19 0)
(1.16945 -1.19067e-19 0)
(1.16935 -1.18188e-19 0)
(1.16925 -1.17312e-19 0)
(1.16914 -1.16439e-19 0)
(1.16903 -1.15571e-19 0)
(1.16892 -1.14707e-19 0)
(1.16881 -1.13847e-19 0)
(1.1687 -1.1299e-19 0)
(1.16858 -1.12138e-19 0)
(1.16846 -1.11289e-19 0)
(1.16834 -1.10444e-19 0)
(1.16822 -1.09604e-19 0)
(1.1681 -1.08767e-19 0)
(1.16797 -1.07935e-19 0)
(1.16784 -1.07106e-19 0)
(1.16771 -1.06281e-19 0)
(1.16758 -1.05461e-19 0)
(1.16745 -1.04644e-19 0)
(1.16731 -1.03831e-19 0)
(1.16717 -1.03023e-19 0)
(1.16703 -1.02218e-19 0)
(1.16689 -1.01418e-19 0)
(1.16674 -1.00621e-19 0)
(1.1666 -9.98291e-20 0)
(1.16645 -9.90408e-20 0)
(1.1663 -9.82565e-20 0)
(1.16614 -9.74763e-20 0)
(1.16599 -9.67002e-20 0)
(1.16583 -9.59282e-20 0)
(1.16567 -9.51602e-20 0)
(1.16551 -9.43964e-20 0)
(1.16534 -9.36366e-20 0)
(1.16518 -9.28808e-20 0)
(1.16501 -9.21292e-20 0)
(1.16484 -9.13817e-20 0)
(1.16466 -9.06382e-20 0)
(1.16449 -8.98988e-20 0)
(1.16431 -8.91635e-20 0)
(1.16413 -8.84323e-20 0)
(1.16395 -8.77052e-20 0)
(1.16377 -8.69822e-20 0)
(1.16358 -8.62632e-20 0)
(1.16339 -8.55484e-20 0)
(1.1632 -8.48376e-20 0)
(1.16301 -8.41309e-20 0)
(1.16281 -8.34282e-20 0)
(1.16262 -8.27297e-20 0)
(1.16242 -8.20352e-20 0)
(1.16222 -8.13448e-20 0)
(1.16201 -8.06584e-20 0)
(1.1618 -7.99762e-20 0)
(1.1616 -7.92979e-20 0)
(1.16138 -7.86238e-20 0)
(1.16117 -7.79536e-20 0)
(1.16096 -7.72876e-20 0)
(1.16074 -7.66255e-20 0)
(1.16052 -7.59675e-20 0)
(1.16029 -7.53136e-20 0)
(1.16007 -7.46636e-20 0)
(1.15984 -7.40177e-20 0)
(1.15961 -7.33758e-20 0)
(1.15938 -7.27379e-20 0)
(1.15914 -7.2104e-20 0)
(1.15891 -7.14741e-20 0)
(1.15867 -7.08482e-20 0)
(1.15842 -7.02263e-20 0)
(1.15818 -6.96084e-20 0)
(1.15793 -6.89944e-20 0)
(1.15768 -6.83844e-20 0)
(1.15743 -6.77783e-20 0)
(1.15718 -6.71762e-20 0)
(1.15692 -6.6578e-20 0)
(1.15666 -6.59838e-20 0)
(1.1564 -6.53934e-20 0)
(1.15614 -6.4807e-20 0)
(1.15587 -6.42245e-20 0)
(1.1556 -6.36459e-20 0)
(1.15533 -6.30712e-20 0)
(1.15506 -6.25003e-20 0)
(1.15478 -6.19333e-20 0)
(1.1545 -6.13702e-20 0)
(1.15422 -6.08109e-20 0)
(1.15393 -6.02555e-20 0)
(1.15365 -5.97039e-20 0)
(1.15336 -5.91561e-20 0)
(1.15307 -5.86121e-20 0)
(1.15277 -5.80719e-20 0)
(1.15248 -5.75355e-20 0)
(1.15218 -5.70029e-20 0)
(1.15187 -5.6474e-20 0)
(1.15157 -5.59489e-20 0)
(1.15126 -5.54276e-20 0)
(1.15095 -5.491e-20 0)
(1.15064 -5.43961e-20 0)
(1.15032 -5.38859e-20 0)
(1.15001 -5.33794e-20 0)
(1.14969 -5.28766e-20 0)
(1.14936 -5.23775e-20 0)
(1.14904 -5.1882e-20 0)
(1.14871 -5.13902e-20 0)
(1.14838 -5.0902e-20 0)
(1.14805 -5.04174e-20 0)
(1.14771 -4.99365e-20 0)
(1.14737 -4.94592e-20 0)
(1.14703 -4.89854e-20 0)
(1.14669 -4.85153e-20 0)
(1.14634 -4.80486e-20 0)
(1.14599 -4.75856e-20 0)
(1.14564 -4.71261e-20 0)
(1.14528 -4.66701e-20 0)
(1.14492 -4.62176e-20 0)
(1.14456 -4.57686e-20 0)
(1.1442 -4.53231e-20 0)
(1.14384 -4.48811e-20 0)
(1.14347 -4.44425e-20 0)
(1.1431 -4.40074e-20 0)
(1.14272 -4.35757e-20 0)
(1.14235 -4.31474e-20 0)
(1.14197 -4.27225e-20 0)
(1.14158 -4.2301e-20 0)
(1.1412 -4.18829e-20 0)
(1.14081 -4.14681e-20 0)
(1.14042 -4.10567e-20 0)
(1.14003 -4.06486e-20 0)
(1.13963 -4.02438e-20 0)
(1.13923 -3.98424e-20 0)
(1.13883 -3.94442e-20 0)
(1.13843 -3.90493e-20 0)
(1.13802 -3.86576e-20 0)
(1.13761 -3.82692e-20 0)
(1.1372 -3.7884e-20 0)
(1.13679 -3.75021e-20 0)
(1.13637 -3.71233e-20 0)
(1.13595 -3.67477e-20 0)
(1.13552 -3.63753e-20 0)
(1.1351 -3.6006e-20 0)
(1.13467 -3.56399e-20 0)
(1.13424 -3.52769e-20 0)
(1.1338 -3.4917e-20 0)
(1.13336 -3.45602e-20 0)
(1.13292 -3.42064e-20 0)
(1.13248 -3.38557e-20 0)
(1.13204 -3.35081e-20 0)
(1.13159 -3.31635e-20 0)
(1.13114 -3.28219e-20 0)
(1.13068 -3.24833e-20 0)
(1.13022 -3.21477e-20 0)
(1.12976 -3.1815e-20 0)
(1.1293 -3.14853e-20 0)
(1.12884 -3.11586e-20 0)
(1.12837 -3.08347e-20 0)
(1.1279 -3.05138e-20 0)
(1.12742 -3.01957e-20 0)
(1.12695 -2.98805e-20 0)
(1.12647 -2.95681e-20 0)
(1.12598 -2.92586e-20 0)
(1.1255 -2.89519e-20 0)
(1.12501 -2.8648e-20 0)
(1.12452 -2.83469e-20 0)
(1.12403 -2.80486e-20 0)
(1.12353 -2.7753e-20 0)
(1.12303 -2.74602e-20 0)
(1.12253 -2.717e-20 0)
(1.12202 -2.68826e-20 0)
(1.12152 -2.65979e-20 0)
(1.121 -2.63158e-20 0)
(1.12049 -2.60364e-20 0)
(1.11997 -2.57597e-20 0)
(1.11946 -2.54855e-20 0)
(1.11893 -2.5214e-20 0)
(1.11841 -2.4945e-20 0)
(1.11788 -2.46786e-20 0)
(1.11735 -2.44148e-20 0)
(1.11682 -2.41535e-20 0)
(1.11628 -2.38947e-20 0)
(1.11574 -2.36384e-20 0)
(1.1152 -2.33847e-20 0)
(1.11465 -2.31333e-20 0)
(1.11411 -2.28845e-20 0)
(1.11356 -2.26381e-20 0)
(1.113 -2.2394e-20 0)
(1.11245 -2.21524e-20 0)
(1.11189 -2.19132e-20 0)
(1.11132 -2.16764e-20 0)
(1.11076 -2.14419e-20 0)
(1.11019 -2.12097e-20 0)
(1.10962 -2.09799e-20 0)
(1.10905 -2.07524e-20 0)
(1.10847 -2.05271e-20 0)
(1.10789 -2.03041e-20 0)
(1.10731 -2.00834e-20 0)
(1.10672 -1.98649e-20 0)
(1.10613 -1.96486e-20 0)
(1.10554 -1.94345e-20 0)
(1.10495 -1.92226e-20 0)
(1.10435 -1.90129e-20 0)
(1.10375 -1.88054e-20 0)
(1.10315 -1.85999e-20 0)
(1.10254 -1.83966e-20 0)
(1.10193 -1.81954e-20 0)
(1.10132 -1.79963e-20 0)
(1.10071 -1.77992e-20 0)
(1.10009 -1.76042e-20 0)
(1.09947 -1.74112e-20 0)
(1.09885 -1.72203e-20 0)
(1.09822 -1.70314e-20 0)
(1.09759 -1.68444e-20 0)
(1.09696 -1.66594e-20 0)
(1.09632 -1.64764e-20 0)
(1.09568 -1.62953e-20 0)
(1.09504 -1.61161e-20 0)
(1.0944 -1.59389e-20 0)
(1.09375 -1.57635e-20 0)
(1.0931 -1.559e-20 0)
(1.09245 -1.54184e-20 0)
(1.09179 -1.52486e-20 0)
(1.09113 -1.50807e-20 0)
(1.09047 -1.49145e-20 0)
(1.0898 -1.47502e-20 0)
(1.08913 -1.45876e-20 0)
(1.08846 -1.44268e-20 0)
(1.08778 -1.42678e-20 0)
(1.0871 -1.41105e-20 0)
(1.08642 -1.39549e-20 0)
(1.08574 -1.3801e-20 0)
(1.08505 -1.36488e-20 0)
(1.08436 -1.34983e-20 0)
(1.08366 -1.33495e-20 0)
(1.08296 -1.32022e-20 0)
(1.08226 -1.30567e-20 0)
(1.08156 -1.29127e-20 0)
(1.08085 -1.27703e-20 0)
(1.08014 -1.26295e-20 0)
(1.07943 -1.24903e-20 0)
(1.07871 -1.23527e-20 0)
(1.07799 -1.22166e-20 0)
(1.07726 -1.2082e-20 0)
(1.07654 -1.19489e-20 0)
(1.07581 -1.18173e-20 0)
(1.07507 -1.16872e-20 0)
(1.07433 -1.15586e-20 0)
(1.07359 -1.14315e-20 0)
(1.07285 -1.13057e-20 0)
(1.0721 -1.11814e-20 0)
(1.07135 -1.10586e-20 0)
(1.07059 -1.09371e-20 0)
(1.06983 -1.0817e-20 0)
(1.06907 -1.06983e-20 0)
(1.0683 -1.0581e-20 0)
(1.06753 -1.0465e-20 0)
(1.06676 -1.03503e-20 0)
(1.06598 -1.0237e-20 0)
(1.0652 -1.01249e-20 0)
(1.06442 -1.00142e-20 0)
(1.06363 -9.90472e-21 0)
(1.06283 -9.79654e-21 0)
(1.06204 -9.68961e-21 0)
(1.06124 -9.58392e-21 0)
(1.06043 -9.47947e-21 0)
(1.05963 -9.37624e-21 0)
(1.05881 -9.27421e-21 0)
(1.058 -9.17338e-21 0)
(1.05718 -9.07373e-21 0)
(1.05635 -8.97526e-21 0)
(1.05552 -8.87794e-21 0)
(1.05469 -8.78177e-21 0)
(1.05385 -8.68673e-21 0)
(1.05301 -8.59282e-21 0)
(1.05217 -8.50002e-21 0)
(1.05132 -8.40831e-21 0)
(1.05046 -8.3177e-21 0)
(1.0496 -8.22817e-21 0)
(1.04874 -8.1397e-21 0)
(1.04787 -8.05229e-21 0)
(1.047 -7.96592e-21 0)
(1.04612 -7.88058e-21 0)
(1.04524 -7.79626e-21 0)
(1.04436 -7.71296e-21 0)
(1.04347 -7.63066e-21 0)
(1.04257 -7.54935e-21 0)
(1.04167 -7.46901e-21 0)
(1.04076 -7.38965e-21 0)
(1.03985 -7.31124e-21 0)
(1.03894 -7.23379e-21 0)
(1.03802 -7.15727e-21 0)
(1.03709 -7.08168e-21 0)
(1.03616 -7.00701e-21 0)
(1.03522 -6.93325e-21 0)
(1.03428 -6.86038e-21 0)
(1.03333 -6.78841e-21 0)
(1.03238 -6.71731e-21 0)
(1.03142 -6.64709e-21 0)
(1.03046 -6.57772e-21 0)
(1.02949 -6.50921e-21 0)
(1.02851 -6.44154e-21 0)
(1.02753 -6.3747e-21 0)
(1.02654 -6.30868e-21 0)
(1.02555 -6.24349e-21 0)
(1.02455 -6.17909e-21 0)
(1.02355 -6.1155e-21 0)
(1.02253 -6.05269e-21 0)
(1.02152 -5.99066e-21 0)
(1.02049 -5.92941e-21 0)
(1.01946 -5.86892e-21 0)
(1.01842 -5.80918e-21 0)
(1.01738 -5.75019e-21 0)
(1.01633 -5.69194e-21 0)
(1.01527 -5.63442e-21 0)
(1.0142 -5.57762e-21 0)
(1.01313 -5.52153e-21 0)
(1.01205 -5.46616e-21 0)
(1.01097 -5.41148e-21 0)
(1.00987 -5.3575e-21 0)
(1.00877 -5.30419e-21 0)
(1.00766 -5.25157e-21 0)
(1.00654 -5.19961e-21 0)
(1.00542 -5.14828e-21 0)
(1.00428 -5.09759e-21 0)
(1.00314 -5.0475e-21 0)
(1.00199 -4.99801e-21 0)
(1.00082 -4.94912e-21 0)
(0.999652 -4.9008e-21 0)
(0.99847 -4.85305e-21 0)
(0.997279 -4.80588e-21 0)
(0.996077 -4.75926e-21 0)
(0.994865 -4.71319e-21 0)
(0.993642 -4.66768e-21 0)
(0.992409 -4.62271e-21 0)
(0.991165 -4.57828e-21 0)
(0.98991 -4.53439e-21 0)
(0.988644 -4.49103e-21 0)
(0.987367 -4.4482e-21 0)
(0.986079 -4.40589e-21 0)
(0.984779 -4.3641e-21 0)
(0.983468 -4.32283e-21 0)
(0.982145 -4.28207e-21 0)
(0.980811 -4.24182e-21 0)
(0.979465 -4.20208e-21 0)
(0.978107 -4.16284e-21 0)
(0.976736 -4.1241e-21 0)
(0.975354 -4.08586e-21 0)
(0.973959 -4.04811e-21 0)
(0.972551 -4.01085e-21 0)
(0.971131 -3.97408e-21 0)
(0.969698 -3.93779e-21 0)
(0.968252 -3.90198e-21 0)
(0.966793 -3.86664e-21 0)
(0.965321 -3.83178e-21 0)
(0.963835 -3.79739e-21 0)
(0.962335 -3.76346e-21 0)
(0.960822 -3.73e-21 0)
(0.959294 -3.69699e-21 0)
(0.957752 -3.66443e-21 0)
(0.956195 -3.63233e-21 0)
(0.954624 -3.60066e-21 0)
(0.953036 -3.56943e-21 0)
(0.951433 -3.53862e-21 0)
(0.949813 -3.50821e-21 0)
(0.948175 -3.4782e-21 0)
(0.946518 -3.44858e-21 0)
(0.944842 -3.41932e-21 0)
(0.943147 -3.39045e-21 0)
(0.941431 -3.36193e-21 0)
(0.939696 -3.33378e-21 0)
(0.937939 -3.30598e-21 0)
(0.936161 -3.27853e-21 0)
(0.93436 -3.25143e-21 0)
(0.932537 -3.22466e-21 0)
(0.930691 -3.19823e-21 0)
(0.92882 -3.17213e-21 0)
(0.926925 -3.14634e-21 0)
(0.925005 -3.12088e-21 0)
(0.923059 -3.09572e-21 0)
(0.921086 -3.07087e-21 0)
(0.919086 -3.04632e-21 0)
(0.917057 -3.02206e-21 0)
(0.914999 -2.99809e-21 0)
(0.912911 -2.97441e-21 0)
(0.910792 -2.951e-21 0)
(0.908641 -2.92786e-21 0)
(0.906457 -2.90498e-21 0)
(0.904239 -2.88236e-21 0)
(0.901986 -2.86e-21 0)
(0.899696 -2.83788e-21 0)
(0.897369 -2.816e-21 0)
(0.895003 -2.79435e-21 0)
(0.892597 -2.77293e-21 0)
(0.89015 -2.75173e-21 0)
(0.887659 -2.73073e-21 0)
(0.885123 -2.70995e-21 0)
(0.88254 -2.68936e-21 0)
(0.87991 -2.66895e-21 0)
(0.877229 -2.64873e-21 0)
(0.874496 -2.62869e-21 0)
(0.871709 -2.6088e-21 0)
(0.868865 -2.58907e-21 0)
(0.865962 -2.56949e-21 0)
(0.862997 -2.55005e-21 0)
(0.859969 -2.53073e-21 0)
(0.856872 -2.51152e-21 0)
(0.853706 -2.49242e-21 0)
(0.850466 -2.47341e-21 0)
(0.847148 -2.45449e-21 0)
(0.843749 -2.43563e-21 0)
(0.840264 -2.41682e-21 0)
(0.83669 -2.39805e-21 0)
(0.833021 -2.37931e-21 0)
(0.829252 -2.36057e-21 0)
(0.825377 -2.34182e-21 0)
(0.821389 -2.32304e-21 0)
(0.817284 -2.3042e-21 0)
(0.813051 -2.2853e-21 0)
(0.808685 -2.26629e-21 0)
(0.804175 -2.24716e-21 0)
(0.799512 -2.22787e-21 0)
(0.794684 -2.2084e-21 0)
(0.789681 -2.18871e-21 0)
(0.784488 -2.16876e-21 0)
(0.77909 -2.1485e-21 0)
(0.773471 -2.1279e-21 0)
(0.767611 -2.10689e-21 0)
(0.761489 -2.08542e-21 0)
(0.755081 -2.06342e-21 0)
(0.748358 -2.0408e-21 0)
(0.741288 -2.01749e-21 0)
(0.733833 -1.99338e-21 0)
(0.725951 -1.96834e-21 0)
(0.71759 -1.94225e-21 0)
(0.708689 -1.91493e-21 0)
(0.699175 -1.88618e-21 0)
(0.688961 -1.85578e-21 0)
(0.677938 -1.82342e-21 0)
(0.665973 -1.78875e-21 0)
(0.6529 -1.75133e-21 0)
(0.638502 -1.71057e-21 0)
(0.622484 -1.66567e-21 0)
(0.604426 -1.61553e-21 0)
(0.583772 -1.55863e-21 0)
(0.559778 -1.49302e-21 0)
(0.531411 -1.41593e-21 0)
(0.497195 -1.32346e-21 0)
(0.45499 -1.20992e-21 0)
(0.401493 -1.06659e-21 0)
(0.332249 -8.81689e-22 0)
(0.245794 -6.51504e-22 0)
(0.149044 -3.94578e-22 0)
(0.049805 -1.31661e-22 0)
)
;

boundaryField
{
    top_wall
    {
        type            noSlip;
    }
    inlet
    {
        type            cyclic;
    }
    bot_wall
    {
        type            noSlip;
    }
    outlet
    {
        type            cyclic;
    }
    frontAndBack
    {
        type            empty;
    }
}


// ************************************************************************* //
