/*--------------------------------*- C++ -*----------------------------------*\
| =========                 |                                                 |
| \\      /  F ield         | OpenFOAM: The Open Source CFD Toolbox           |
|  \\    /   O peration     | Version:  2312                                  |
|   \\  /    A nd           | Website:  www.openfoam.com                      |
|    \\/     M anipulation  |                                                 |
\*---------------------------------------------------------------------------*/
FoamFile
{
    version     2.0;
    format      ascii;
    arch        "LSB;label=32;scalar=64";
    class       volScalarField;
    location    "10.255";
    object      k;
}
// * * * * * * * * * * * * * * * * * * * * * * * * * * * * * * * * * * * * * //

dimensions      [0 2 -2 0 0 0 0];

internalField   nonuniform List<scalar> 
500
(
0.0062047
0.00582776
0.00646982
0.00686625
0.00710546
0.00725728
0.00735713
0.00742389
0.00746839
0.00749726
0.00751476
0.00752376
0.00752625
0.00752368
0.00751709
0.00750727
0.00749484
0.00748027
0.00746392
0.00744609
0.00742702
0.0074069
0.00738589
0.00736413
0.00734172
0.00731876
0.00729532
0.00727147
0.00724727
0.00722276
0.00719798
0.00717296
0.00714775
0.00712236
0.00709682
0.00707114
0.00704535
0.00701945
0.00699347
0.00696741
0.00694128
0.00691509
0.00688886
0.00686257
0.00683625
0.00680989
0.0067835
0.00675708
0.00673064
0.00670418
0.0066777
0.0066512
0.00662469
0.00659817
0.00657163
0.00654508
0.00651853
0.00649196
0.00646538
0.0064388
0.00641221
0.00638561
0.00635901
0.0063324
0.00630578
0.00627915
0.00625252
0.00622588
0.00619924
0.00617259
0.00614593
0.00611927
0.0060926
0.00606592
0.00603924
0.00601255
0.00598586
0.00595916
0.00593246
0.00590575
0.00587903
0.00585231
0.00582559
0.00579887
0.00577214
0.0057454
0.00571867
0.00569193
0.00566519
0.00563845
0.00561171
0.00558497
0.00555824
0.0055315
0.00550477
0.00547804
0.00545131
0.0054246
0.00539789
0.00537118
0.00534449
0.00531781
0.00529113
0.00526447
0.00523783
0.0052112
0.00518459
0.00515799
0.00513142
0.00510487
0.00507834
0.00505184
0.00502536
0.00499891
0.00497249
0.0049461
0.00491975
0.00489343
0.00486716
0.00484092
0.00481472
0.00478857
0.00476246
0.00473641
0.0047104
0.00468444
0.00465855
0.00463271
0.00460693
0.00458121
0.00455555
0.00452997
0.00450445
0.00447901
0.00445364
0.00442835
0.00440314
0.00437802
0.00435297
0.00432802
0.00430316
0.00427839
0.00425372
0.00422915
0.00420468
0.00418032
0.00415606
0.00413192
0.00410789
0.00408398
0.00406018
0.00403651
0.00401296
0.00398954
0.00396626
0.0039431
0.00392009
0.00389721
0.00387448
0.0038519
0.00382946
0.00380717
0.00378504
0.00376307
0.00374126
0.00371961
0.00369812
0.00367681
0.00365567
0.0036347
0.00361391
0.00359331
0.00357288
0.00355264
0.0035326
0.00351274
0.00349307
0.00347361
0.00345434
0.00343528
0.00341642
0.00339777
0.00337933
0.0033611
0.00334309
0.00332529
0.00330772
0.00329037
0.00327324
0.00325634
0.00323967
0.00322323
0.00320703
0.00319107
0.00317534
0.00315985
0.00314461
0.00312961
0.00311486
0.00310036
0.00308611
0.00307211
0.00305837
0.00304489
0.00303166
0.0030187
0.00300599
0.00299356
0.00298138
0.00296948
0.00295784
0.00294648
0.00293538
0.00292456
0.00291402
0.00290375
0.00289376
0.00288405
0.00287462
0.00286548
0.00285661
0.00284803
0.00283974
0.00283173
0.00282401
0.00281657
0.00280943
0.00280258
0.00279602
0.00278975
0.00278377
0.00277809
0.00277271
0.00276761
0.00276282
0.00275832
0.00275412
0.00275021
0.00274661
0.0027433
0.00274029
0.00273759
0.00273518
0.00273307
0.00273126
0.00272976
0.00272855
0.00272765
0.00272705
0.00272674
0.00272674
0.00272704
0.00272765
0.00272855
0.00272976
0.00273126
0.00273307
0.00273518
0.00273758
0.00274029
0.0027433
0.00274661
0.00275021
0.00275411
0.00275832
0.00276281
0.00276761
0.0027727
0.00277809
0.00278377
0.00278974
0.00279601
0.00280257
0.00280943
0.00281657
0.002824
0.00283172
0.00283973
0.00284803
0.00285661
0.00286547
0.00287462
0.00288405
0.00289376
0.00290375
0.00291401
0.00292456
0.00293538
0.00294647
0.00295784
0.00296947
0.00298138
0.00299355
0.00300599
0.00301869
0.00303165
0.00304488
0.00305836
0.00307211
0.0030861
0.00310035
0.00311485
0.0031296
0.0031446
0.00315984
0.00317533
0.00319106
0.00320702
0.00322323
0.00323966
0.00325633
0.00327323
0.00329036
0.00330771
0.00332528
0.00334308
0.00336109
0.00337932
0.00339776
0.00341641
0.00343527
0.00345434
0.0034736
0.00349307
0.00351273
0.00353259
0.00355264
0.00357288
0.0035933
0.00361391
0.0036347
0.00365567
0.00367681
0.00369812
0.0037196
0.00374125
0.00376307
0.00378504
0.00380717
0.00382946
0.00385189
0.00387448
0.00389721
0.00392009
0.00394311
0.00396626
0.00398955
0.00401296
0.00403651
0.00406018
0.00408398
0.00410789
0.00413192
0.00415607
0.00418032
0.00420469
0.00422916
0.00425373
0.0042784
0.00430316
0.00432803
0.00435298
0.00437802
0.00440315
0.00442836
0.00445365
0.00447901
0.00450446
0.00452997
0.00455556
0.00458121
0.00460693
0.00463271
0.00465855
0.00468445
0.0047104
0.00473641
0.00476247
0.00478857
0.00481473
0.00484092
0.00486716
0.00489344
0.00491976
0.00494611
0.00497249
0.00499891
0.00502536
0.00505184
0.00507834
0.00510487
0.00513142
0.005158
0.00518459
0.0052112
0.00523783
0.00526448
0.00529114
0.00531781
0.00534449
0.00537119
0.00539789
0.0054246
0.00545132
0.00547804
0.00550477
0.0055315
0.00555824
0.00558497
0.00561171
0.00563845
0.00566519
0.00569193
0.00571867
0.0057454
0.00577214
0.00579887
0.00582559
0.00585232
0.00587903
0.00590575
0.00593246
0.00595916
0.00598586
0.00601255
0.00603924
0.00606592
0.0060926
0.00611927
0.00614593
0.00617259
0.00619924
0.00622588
0.00625252
0.00627915
0.00630578
0.0063324
0.00635901
0.00638561
0.00641221
0.0064388
0.00646538
0.00649196
0.00651852
0.00654508
0.00657163
0.00659817
0.00662469
0.0066512
0.0066777
0.00670418
0.00673064
0.00675708
0.0067835
0.00680989
0.00683624
0.00686257
0.00688885
0.00691509
0.00694128
0.00696741
0.00699347
0.00701945
0.00704535
0.00707114
0.00709682
0.00712236
0.00714775
0.00717296
0.00719797
0.00722276
0.00724727
0.00727147
0.00729532
0.00731876
0.00734172
0.00736413
0.00738589
0.0074069
0.00742702
0.00744609
0.00746392
0.00748027
0.00749484
0.00750727
0.00751709
0.00752367
0.00752625
0.00752376
0.00751476
0.00749726
0.00746839
0.00742389
0.00735713
0.00725728
0.00710546
0.00686625
0.00646981
0.00582775
0.0062047
)
;

boundaryField
{
    top_wall
    {
        type            kLowReWallFunction;
        value           uniform 0.000623251;
    }
    inlet
    {
        type            cyclic;
    }
    bot_wall
    {
        type            kLowReWallFunction;
        value           uniform 0.000623251;
    }
    outlet
    {
        type            cyclic;
    }
    frontAndBack
    {
        type            empty;
    }
}


// ************************************************************************* //
