/*--------------------------------*- C++ -*----------------------------------*\
| =========                 |                                                 |
| \\      /  F ield         | OpenFOAM: The Open Source CFD Toolbox           |
|  \\    /   O peration     | Version:  2312                                  |
|   \\  /    A nd           | Website:  www.openfoam.com                      |
|    \\/     M anipulation  |                                                 |
\*---------------------------------------------------------------------------*/
FoamFile
{
    version     2.0;
    format      ascii;
    arch        "LSB;label=32;scalar=64";
    class       volScalarField;
    location    "10.255";
    object      nut;
}
// * * * * * * * * * * * * * * * * * * * * * * * * * * * * * * * * * * * * * //

dimensions      [0 2 -1 0 0 0 0];

internalField   nonuniform List<scalar> 
500
(
3.53791e-05
7.73905e-05
0.000150216
0.00022952
0.000309719
0.000389368
0.000468007
0.000545481
0.000621743
0.000696792
0.000770646
0.000843327
0.000914859
0.000985267
0.00105457
0.0011228
0.00118997
0.00125609
0.00132118
0.00138526
0.00144833
0.00151041
0.00157151
0.00163164
0.0016908
0.001749
0.00180626
0.00186257
0.00191794
0.00197238
0.00202589
0.00207848
0.00213015
0.00218091
0.00223076
0.0022797
0.00232774
0.00237489
0.00242115
0.00246652
0.002511
0.00255461
0.00259734
0.00263919
0.00268019
0.00272032
0.00275959
0.00279801
0.00283558
0.00287231
0.00290821
0.00294327
0.0029775
0.00301091
0.0030435
0.00307528
0.00310626
0.00313644
0.00316582
0.00319442
0.00322224
0.00324928
0.00327556
0.00330107
0.00332583
0.00334984
0.00337311
0.00339565
0.00341746
0.00343855
0.00345893
0.00347861
0.00349759
0.00351587
0.00353348
0.00355042
0.00356668
0.00358229
0.00359725
0.00361157
0.00362525
0.00363831
0.00365075
0.00366258
0.00367381
0.00368445
0.0036945
0.00370398
0.00371289
0.00372124
0.00372905
0.00373631
0.00374304
0.00374924
0.00375493
0.00376011
0.00376479
0.00376899
0.0037727
0.00377594
0.00377871
0.00378104
0.00378291
0.00378435
0.00378536
0.00378595
0.00378612
0.0037859
0.00378528
0.00378427
0.00378289
0.00378113
0.00377902
0.00377655
0.00377374
0.0037706
0.00376713
0.00376334
0.00375924
0.00375483
0.00375014
0.00374515
0.00373989
0.00373436
0.00372857
0.00372252
0.00371622
0.00370969
0.00370293
0.00369594
0.00368873
0.00368132
0.00367371
0.0036659
0.00365791
0.00364974
0.00364139
0.00363289
0.00362422
0.0036154
0.00360644
0.00359734
0.00358811
0.00357876
0.00356929
0.00355971
0.00355002
0.00354024
0.00353036
0.0035204
0.00351036
0.00350024
0.00349006
0.00347981
0.00346951
0.00345916
0.00344876
0.00343832
0.00342784
0.00341734
0.00340682
0.00339627
0.00338571
0.00337514
0.00336457
0.003354
0.00334344
0.00333288
0.00332234
0.00331182
0.00330132
0.00329086
0.00328042
0.00327002
0.00325966
0.00324934
0.00323908
0.00322886
0.00321871
0.00320861
0.00319857
0.00318861
0.00317871
0.00316889
0.00315914
0.00314948
0.0031399
0.0031304
0.003121
0.00311169
0.00310248
0.00309336
0.00308435
0.00307544
0.00306664
0.00305795
0.00304937
0.00304091
0.00303256
0.00302434
0.00301624
0.00300826
0.00300041
0.00299269
0.0029851
0.00297765
0.00297033
0.00296315
0.00295611
0.00294921
0.00294246
0.00293585
0.00292938
0.00292307
0.00291691
0.0029109
0.00290504
0.00289934
0.0028938
0.00288841
0.00288318
0.00287812
0.00287322
0.00286848
0.00286391
0.0028595
0.00285526
0.00285119
0.00284729
0.00284356
0.00284
0.00283661
0.00283339
0.00283035
0.00282749
0.0028248
0.00282228
0.00281995
0.00281779
0.00281581
0.002814
0.00281238
0.00281094
0.00280967
0.00280859
0.00280768
0.00280696
0.00280642
0.00280605
0.00280587
0.00280587
0.00280605
0.00280642
0.00280696
0.00280768
0.00280859
0.00280967
0.00281094
0.00281238
0.00281401
0.00281581
0.00281779
0.00281995
0.00282229
0.0028248
0.00282749
0.00283036
0.0028334
0.00283661
0.00284
0.00284356
0.00284729
0.00285119
0.00285527
0.00285951
0.00286391
0.00286849
0.00287323
0.00287813
0.00288319
0.00288842
0.0028938
0.00289935
0.00290505
0.00291091
0.00291692
0.00292308
0.00292939
0.00293586
0.00294247
0.00294922
0.00295612
0.00296316
0.00297034
0.00297766
0.00298512
0.0029927
0.00300042
0.00300827
0.00301625
0.00302435
0.00303258
0.00304092
0.00304938
0.00305796
0.00306665
0.00307545
0.00308436
0.00309337
0.00310249
0.0031117
0.00312101
0.00313041
0.00313991
0.00314949
0.00315915
0.00316889
0.00317872
0.00318861
0.00319858
0.00320861
0.00321871
0.00322887
0.00323908
0.00324935
0.00325966
0.00327002
0.00328042
0.00329086
0.00330132
0.00331182
0.00332234
0.00333288
0.00334343
0.003354
0.00336457
0.00337514
0.00338571
0.00339626
0.00340681
0.00341733
0.00342784
0.00343831
0.00344875
0.00345914
0.0034695
0.0034798
0.00349005
0.00350023
0.00351035
0.00352039
0.00353035
0.00354023
0.00355001
0.0035597
0.00356928
0.00357875
0.0035881
0.00359733
0.00360643
0.00361539
0.00362421
0.00363287
0.00364138
0.00364973
0.0036579
0.00366589
0.0036737
0.00368131
0.00368873
0.00369593
0.00370292
0.00370968
0.00371622
0.00372251
0.00372856
0.00373436
0.00373989
0.00374515
0.00375013
0.00375483
0.00375924
0.00376334
0.00376713
0.0037706
0.00377374
0.00377655
0.00377902
0.00378113
0.00378289
0.00378427
0.00378528
0.0037859
0.00378613
0.00378595
0.00378536
0.00378435
0.00378291
0.00378104
0.00377872
0.00377594
0.0037727
0.00376899
0.0037648
0.00376011
0.00375493
0.00374924
0.00374304
0.00373631
0.00372905
0.00372125
0.0037129
0.00370399
0.00369451
0.00368445
0.00367382
0.00366259
0.00365075
0.00363831
0.00362526
0.00361157
0.00359726
0.0035823
0.00356669
0.00355042
0.00353349
0.00351588
0.00349759
0.00347861
0.00345894
0.00343856
0.00341746
0.00339565
0.00337312
0.00334984
0.00332583
0.00330107
0.00327556
0.00324928
0.00322224
0.00319442
0.00316583
0.00313644
0.00310626
0.00307528
0.0030435
0.00301091
0.0029775
0.00294327
0.00290821
0.00287232
0.00283559
0.00279801
0.00275959
0.00272032
0.00268019
0.0026392
0.00259734
0.00255461
0.002511
0.00246652
0.00242115
0.00237489
0.00232775
0.0022797
0.00223076
0.00218091
0.00213015
0.00207848
0.00202589
0.00197238
0.00191794
0.00186257
0.00180626
0.001749
0.0016908
0.00163164
0.00157151
0.00151041
0.00144833
0.00138526
0.00132118
0.00125609
0.00118997
0.0011228
0.00105457
0.000985267
0.000914859
0.000843327
0.000770646
0.000696792
0.000621743
0.000545481
0.000468007
0.000389368
0.000309719
0.00022952
0.000150216
7.73905e-05
3.53791e-05
)
;

boundaryField
{
    top_wall
    {
        type            nutLowReWallFunction;
        value           uniform 0;
    }
    inlet
    {
        type            cyclic;
    }
    bot_wall
    {
        type            nutLowReWallFunction;
        value           uniform 0;
    }
    outlet
    {
        type            cyclic;
    }
    frontAndBack
    {
        type            empty;
    }
}


// ************************************************************************* //
