/*--------------------------------*- C++ -*----------------------------------*\
| =========                 |                                                 |
| \\      /  F ield         | OpenFOAM: The Open Source CFD Toolbox           |
|  \\    /   O peration     | Version:  2312                                  |
|   \\  /    A nd           | Website:  www.openfoam.com                      |
|    \\/     M anipulation  |                                                 |
\*---------------------------------------------------------------------------*/
FoamFile
{
    version     2.0;
    format      ascii;
    arch        "LSB;label=32;scalar=64";
    class       volVectorField;
    location    "10.255";
    object      U;
}
// * * * * * * * * * * * * * * * * * * * * * * * * * * * * * * * * * * * * * //

dimensions      [0 1 -1 0 0 0 0];

internalField   nonuniform List<vector> 
500
(
(0.1029 1.55923e-18 0)
(0.19924 1.89136e-18 0)
(0.261559 2.13231e-18 0)
(0.303945 2.1253e-18 0)
(0.335626 2.11987e-18 0)
(0.360868 2.0819e-18 0)
(0.381851 2.04932e-18 0)
(0.399819 2.10945e-18 0)
(0.415543 2.22166e-18 0)
(0.429532 2.29438e-18 0)
(0.44214 2.17916e-18 0)
(0.453624 1.98095e-18 0)
(0.464172 1.8121e-18 0)
(0.473931 1.61714e-18 0)
(0.483016 1.45301e-18 0)
(0.491516 1.31419e-18 0)
(0.499506 1.22715e-18 0)
(0.507047 1.17749e-18 0)
(0.514187 1.12934e-18 0)
(0.520971 1.08841e-18 0)
(0.527434 1.05085e-18 0)
(0.533605 1.01851e-18 0)
(0.539513 9.90373e-19 0)
(0.54518 9.65615e-19 0)
(0.550627 9.43544e-19 0)
(0.55587 9.23606e-19 0)
(0.560927 9.05359e-19 0)
(0.565809 8.88457e-19 0)
(0.570532 8.72627e-19 0)
(0.575104 8.57657e-19 0)
(0.579537 8.43382e-19 0)
(0.583839 8.29676e-19 0)
(0.58802 8.16441e-19 0)
(0.592085 8.036e-19 0)
(0.596042 7.91097e-19 0)
(0.599898 7.78885e-19 0)
(0.603658 7.6693e-19 0)
(0.607327 7.55203e-19 0)
(0.61091 7.43684e-19 0)
(0.614412 7.32354e-19 0)
(0.617837 7.21199e-19 0)
(0.621189 7.10209e-19 0)
(0.62447 6.99375e-19 0)
(0.627686 6.88686e-19 0)
(0.630838 6.78138e-19 0)
(0.633929 6.67723e-19 0)
(0.636963 6.57436e-19 0)
(0.639941 6.47272e-19 0)
(0.642867 6.37224e-19 0)
(0.645742 6.27288e-19 0)
(0.648569 6.1746e-19 0)
(0.651349 6.07733e-19 0)
(0.654085 5.98102e-19 0)
(0.656777 5.88563e-19 0)
(0.659429 5.7911e-19 0)
(0.66204 5.69738e-19 0)
(0.664614 5.6044e-19 0)
(0.667151 5.51212e-19 0)
(0.669652 5.42048e-19 0)
(0.672119 5.32941e-19 0)
(0.674553 5.23886e-19 0)
(0.676955 5.14878e-19 0)
(0.679326 5.0591e-19 0)
(0.681668 4.96976e-19 0)
(0.683981 4.88071e-19 0)
(0.686266 4.79189e-19 0)
(0.688524 4.70322e-19 0)
(0.690756 4.61467e-19 0)
(0.692962 4.52616e-19 0)
(0.695144 4.43763e-19 0)
(0.697303 4.34901e-19 0)
(0.699438 4.26026e-19 0)
(0.701551 4.17129e-19 0)
(0.703642 4.08203e-19 0)
(0.705712 3.99243e-19 0)
(0.707762 3.90239e-19 0)
(0.709791 3.81183e-19 0)
(0.711801 3.72068e-19 0)
(0.713792 3.62884e-19 0)
(0.715765 3.53619e-19 0)
(0.71772 3.44265e-19 0)
(0.719657 3.34807e-19 0)
(0.721578 3.25235e-19 0)
(0.723482 3.15532e-19 0)
(0.725369 3.05683e-19 0)
(0.727241 2.95672e-19 0)
(0.729097 2.85479e-19 0)
(0.730939 2.75083e-19 0)
(0.732765 2.64462e-19 0)
(0.734577 2.53591e-19 0)
(0.736375 2.42442e-19 0)
(0.738159 2.30988e-19 0)
(0.73993 2.19195e-19 0)
(0.741688 2.07031e-19 0)
(0.743432 1.94457e-19 0)
(0.745164 1.81435e-19 0)
(0.746884 1.67924e-19 0)
(0.748591 1.53879e-19 0)
(0.750287 1.39255e-19 0)
(0.751971 1.24003e-19 0)
(0.753643 1.08074e-19 0)
(0.755304 9.14175e-20 0)
(0.756953 7.39813e-20 0)
(0.758592 5.57135e-20 0)
(0.76022 3.65619e-20 0)
(0.761837 1.64752e-20 0)
(0.763444 -4.59726e-21 0)
(0.765041 -2.67046e-20 0)
(0.766628 -4.98945e-20 0)
(0.768204 -7.42131e-20 0)
(0.769771 -9.97053e-20 0)
(0.771328 -1.26415e-19 0)
(0.772875 -1.54388e-19 0)
(0.774413 -1.83671e-19 0)
(0.775942 -2.14315e-19 0)
(0.777461 -2.46381e-19 0)
(0.778971 -2.79939e-19 0)
(0.780472 -3.15078e-19 0)
(0.781964 -3.5191e-19 0)
(0.783447 -3.90582e-19 0)
(0.784921 -4.31281e-19 0)
(0.786387 -4.74257e-19 0)
(0.787844 -5.19835e-19 0)
(0.789292 -5.67323e-19 0)
(0.790731 -6.17162e-19 0)
(0.792162 -6.69832e-19 0)
(0.793585 -7.25879e-19 0)
(0.794999 -7.85935e-19 0)
(0.796405 -8.50732e-19 0)
(0.797802 -9.21114e-19 0)
(0.799191 -9.98153e-19 0)
(0.800572 -1.08202e-18 0)
(0.801945 -1.17413e-18 0)
(0.803309 -1.27488e-18 0)
(0.804665 -1.38574e-18 0)
(0.806013 -1.50701e-18 0)
(0.807352 -1.63865e-18 0)
(0.808684 -1.78009e-18 0)
(0.810007 -1.9345e-18 0)
(0.811322 -2.06158e-18 0)
(0.812629 -1.9377e-18 0)
(0.813928 -1.81218e-18 0)
(0.815218 -1.93732e-18 0)
(0.8165 -2.09016e-18 0)
(0.817774 -2.23035e-18 0)
(0.81904 -2.35989e-18 0)
(0.820297 -2.47798e-18 0)
(0.821546 -2.5849e-18 0)
(0.822787 -2.68115e-18 0)
(0.824019 -2.76731e-18 0)
(0.825243 -2.84396e-18 0)
(0.826459 -2.91152e-18 0)
(0.827666 -2.97085e-18 0)
(0.828864 -3.02269e-18 0)
(0.830054 -3.06699e-18 0)
(0.831235 -3.10413e-18 0)
(0.832408 -3.13433e-18 0)
(0.833571 -3.15767e-18 0)
(0.834727 -3.17406e-18 0)
(0.835873 -3.18328e-18 0)
(0.83701 -3.18493e-18 0)
(0.838138 -3.17914e-18 0)
(0.839258 -3.16533e-18 0)
(0.840368 -3.14283e-18 0)
(0.841469 -3.11084e-18 0)
(0.842561 -3.06839e-18 0)
(0.843644 -3.01421e-18 0)
(0.844717 -2.94593e-18 0)
(0.845781 -2.86029e-18 0)
(0.846835 -2.74856e-18 0)
(0.84788 -2.68861e-18 0)
(0.848915 -2.97278e-18 0)
(0.84994 -3.25823e-18 0)
(0.850956 -3.19776e-18 0)
(0.851961 -3.08374e-18 0)
(0.852957 -2.99421e-18 0)
(0.853942 -2.92044e-18 0)
(0.854918 -2.85924e-18 0)
(0.855883 -2.80827e-18 0)
(0.856838 -2.76629e-18 0)
(0.857782 -2.73236e-18 0)
(0.858716 -2.70565e-18 0)
(0.859639 -2.68543e-18 0)
(0.860551 -2.67098e-18 0)
(0.861453 -2.66161e-18 0)
(0.862343 -2.65732e-18 0)
(0.863223 -2.65743e-18 0)
(0.864092 -2.66125e-18 0)
(0.864949 -2.66804e-18 0)
(0.865795 -2.67767e-18 0)
(0.86663 -2.68935e-18 0)
(0.867453 -2.70223e-18 0)
(0.868265 -2.71537e-18 0)
(0.869065 -2.72838e-18 0)
(0.869853 -2.74083e-18 0)
(0.87063 -2.75163e-18 0)
(0.871394 -2.76051e-18 0)
(0.872146 -2.76771e-18 0)
(0.872886 -2.77402e-18 0)
(0.873614 -2.78116e-18 0)
(0.87433 -2.7934e-18 0)
(0.875033 -2.81295e-18 0)
(0.875723 -2.86519e-18 0)
(0.876401 -2.76873e-18 0)
(0.877066 -2.6716e-18 0)
(0.877718 -2.72313e-18 0)
(0.878358 -2.74122e-18 0)
(0.878984 -2.75101e-18 0)
(0.879597 -2.75506e-18 0)
(0.880197 -2.75753e-18 0)
(0.880784 -2.76034e-18 0)
(0.881357 -2.76455e-18 0)
(0.881917 -2.77039e-18 0)
(0.882463 -2.77783e-18 0)
(0.882995 -2.78643e-18 0)
(0.883514 -2.79577e-18 0)
(0.884019 -2.80551e-18 0)
(0.88451 -2.81505e-18 0)
(0.884987 -2.8239e-18 0)
(0.88545 -2.83203e-18 0)
(0.885899 -2.83912e-18 0)
(0.886334 -2.84498e-18 0)
(0.886754 -2.84947e-18 0)
(0.88716 -2.85251e-18 0)
(0.887552 -2.85391e-18 0)
(0.887929 -2.85368e-18 0)
(0.888292 -2.85183e-18 0)
(0.88864 -2.84843e-18 0)
(0.888973 -2.84353e-18 0)
(0.889292 -2.83723e-18 0)
(0.889595 -2.82961e-18 0)
(0.889884 -2.8206e-18 0)
(0.890158 -2.81028e-18 0)
(0.890417 -2.79877e-18 0)
(0.890661 -2.78615e-18 0)
(0.890891 -2.77253e-18 0)
(0.891104 -2.758e-18 0)
(0.891303 -2.74255e-18 0)
(0.891487 -2.72629e-18 0)
(0.891655 -2.70929e-18 0)
(0.891809 -2.69155e-18 0)
(0.891947 -2.67315e-18 0)
(0.89207 -2.65417e-18 0)
(0.892177 -2.63466e-18 0)
(0.892269 -2.61466e-18 0)
(0.892346 -2.59421e-18 0)
(0.892407 -2.57336e-18 0)
(0.892454 -2.55213e-18 0)
(0.892484 -2.53056e-18 0)
(0.8925 -2.5087e-18 0)
(0.8925 -2.48657e-18 0)
(0.892484 -2.46421e-18 0)
(0.892454 -2.44164e-18 0)
(0.892407 -2.41887e-18 0)
(0.892346 -2.39595e-18 0)
(0.892269 -2.37289e-18 0)
(0.892177 -2.34973e-18 0)
(0.89207 -2.32649e-18 0)
(0.891947 -2.30315e-18 0)
(0.891809 -2.27972e-18 0)
(0.891655 -2.25623e-18 0)
(0.891487 -2.2327e-18 0)
(0.891303 -2.20914e-18 0)
(0.891104 -2.18556e-18 0)
(0.89089 -2.16199e-18 0)
(0.890661 -2.13843e-18 0)
(0.890417 -2.11489e-18 0)
(0.890158 -2.0914e-18 0)
(0.889884 -2.06795e-18 0)
(0.889595 -2.04455e-18 0)
(0.889292 -2.02123e-18 0)
(0.888973 -1.99797e-18 0)
(0.88864 -1.97479e-18 0)
(0.888292 -1.9517e-18 0)
(0.887929 -1.92871e-18 0)
(0.887552 -1.90581e-18 0)
(0.88716 -1.88302e-18 0)
(0.886754 -1.86034e-18 0)
(0.886334 -1.83777e-18 0)
(0.885899 -1.81532e-18 0)
(0.88545 -1.79299e-18 0)
(0.884987 -1.77079e-18 0)
(0.88451 -1.74872e-18 0)
(0.884019 -1.72678e-18 0)
(0.883514 -1.70498e-18 0)
(0.882995 -1.68332e-18 0)
(0.882463 -1.66181e-18 0)
(0.881917 -1.64044e-18 0)
(0.881357 -1.61923e-18 0)
(0.880784 -1.59817e-18 0)
(0.880197 -1.57726e-18 0)
(0.879597 -1.55651e-18 0)
(0.878984 -1.53592e-18 0)
(0.878358 -1.5155e-18 0)
(0.877718 -1.49525e-18 0)
(0.877066 -1.47516e-18 0)
(0.876401 -1.45525e-18 0)
(0.875723 -1.43551e-18 0)
(0.875033 -1.41594e-18 0)
(0.87433 -1.39655e-18 0)
(0.873614 -1.37735e-18 0)
(0.872886 -1.35832e-18 0)
(0.872146 -1.33948e-18 0)
(0.871394 -1.32083e-18 0)
(0.87063 -1.30236e-18 0)
(0.869853 -1.28408e-18 0)
(0.869065 -1.26599e-18 0)
(0.868265 -1.2481e-18 0)
(0.867453 -1.23039e-18 0)
(0.86663 -1.21288e-18 0)
(0.865795 -1.19556e-18 0)
(0.864949 -1.17844e-18 0)
(0.864092 -1.16152e-18 0)
(0.863223 -1.14479e-18 0)
(0.862343 -1.12827e-18 0)
(0.861453 -1.11193e-18 0)
(0.860551 -1.0958e-18 0)
(0.859639 -1.07987e-18 0)
(0.858716 -1.06413e-18 0)
(0.857782 -1.04859e-18 0)
(0.856838 -1.03325e-18 0)
(0.855883 -1.0181e-18 0)
(0.854918 -1.00315e-18 0)
(0.853942 -9.88403e-19 0)
(0.852957 -9.73847e-19 0)
(0.851961 -9.59486e-19 0)
(0.850956 -9.45318e-19 0)
(0.84994 -9.31342e-19 0)
(0.848915 -9.17559e-19 0)
(0.84788 -9.03965e-19 0)
(0.846835 -8.90561e-19 0)
(0.845781 -8.77344e-19 0)
(0.844717 -8.64313e-19 0)
(0.843644 -8.51466e-19 0)
(0.842561 -8.38803e-19 0)
(0.841469 -8.2632e-19 0)
(0.840368 -8.14017e-19 0)
(0.839258 -8.01892e-19 0)
(0.838138 -7.89942e-19 0)
(0.83701 -7.78167e-19 0)
(0.835873 -7.66563e-19 0)
(0.834727 -7.55129e-19 0)
(0.833571 -7.43863e-19 0)
(0.832408 -7.32763e-19 0)
(0.831235 -7.21826e-19 0)
(0.830054 -7.11051e-19 0)
(0.828864 -7.00436e-19 0)
(0.827665 -6.89978e-19 0)
(0.826459 -6.79675e-19 0)
(0.825243 -6.69525e-19 0)
(0.824019 -6.59525e-19 0)
(0.822787 -6.49675e-19 0)
(0.821546 -6.3997e-19 0)
(0.820297 -6.3041e-19 0)
(0.81904 -6.20992e-19 0)
(0.817774 -6.11713e-19 0)
(0.8165 -6.02573e-19 0)
(0.815218 -5.93568e-19 0)
(0.813927 -5.84696e-19 0)
(0.812629 -5.75955e-19 0)
(0.811322 -5.67344e-19 0)
(0.810007 -5.58859e-19 0)
(0.808684 -5.50499e-19 0)
(0.807352 -5.42263e-19 0)
(0.806013 -5.34147e-19 0)
(0.804665 -5.2615e-19 0)
(0.803309 -5.1827e-19 0)
(0.801944 -5.10505e-19 0)
(0.800572 -5.02854e-19 0)
(0.799191 -4.95313e-19 0)
(0.797802 -4.87881e-19 0)
(0.796405 -4.80558e-19 0)
(0.794999 -4.73339e-19 0)
(0.793585 -4.66225e-19 0)
(0.792162 -4.59213e-19 0)
(0.790731 -4.52301e-19 0)
(0.789292 -4.45488e-19 0)
(0.787843 -4.38773e-19 0)
(0.786387 -4.32152e-19 0)
(0.784921 -4.25626e-19 0)
(0.783447 -4.19192e-19 0)
(0.781964 -4.1285e-19 0)
(0.780472 -4.06596e-19 0)
(0.778971 -4.00431e-19 0)
(0.777461 -3.94352e-19 0)
(0.775942 -3.88358e-19 0)
(0.774413 -3.82448e-19 0)
(0.772875 -3.76621e-19 0)
(0.771328 -3.70874e-19 0)
(0.769771 -3.65208e-19 0)
(0.768204 -3.5962e-19 0)
(0.766627 -3.54109e-19 0)
(0.765041 -3.48675e-19 0)
(0.763444 -3.43316e-19 0)
(0.761837 -3.38031e-19 0)
(0.76022 -3.32819e-19 0)
(0.758592 -3.27678e-19 0)
(0.756953 -3.22608e-19 0)
(0.755303 -3.17608e-19 0)
(0.753643 -3.12676e-19 0)
(0.75197 -3.07812e-19 0)
(0.750287 -3.03015e-19 0)
(0.748591 -2.98283e-19 0)
(0.746884 -2.93616e-19 0)
(0.745164 -2.89013e-19 0)
(0.743432 -2.84473e-19 0)
(0.741688 -2.79996e-19 0)
(0.73993 -2.75579e-19 0)
(0.738159 -2.71223e-19 0)
(0.736375 -2.66927e-19 0)
(0.734577 -2.62689e-19 0)
(0.732765 -2.58509e-19 0)
(0.730938 -2.54387e-19 0)
(0.729097 -2.50321e-19 0)
(0.727241 -2.46312e-19 0)
(0.725369 -2.42357e-19 0)
(0.723481 -2.38456e-19 0)
(0.721578 -2.34609e-19 0)
(0.719657 -2.30816e-19 0)
(0.71772 -2.27074e-19 0)
(0.715765 -2.23384e-19 0)
(0.713792 -2.19746e-19 0)
(0.711801 -2.16157e-19 0)
(0.709791 -2.12619e-19 0)
(0.707762 -2.09129e-19 0)
(0.705712 -2.05688e-19 0)
(0.703642 -2.02295e-19 0)
(0.701551 -1.98949e-19 0)
(0.699438 -1.9565e-19 0)
(0.697303 -1.92397e-19 0)
(0.695144 -1.89189e-19 0)
(0.692962 -1.86027e-19 0)
(0.690756 -1.82909e-19 0)
(0.688524 -1.79835e-19 0)
(0.686266 -1.76804e-19 0)
(0.683981 -1.73816e-19 0)
(0.681668 -1.7087e-19 0)
(0.679326 -1.67966e-19 0)
(0.676955 -1.65104e-19 0)
(0.674553 -1.62282e-19 0)
(0.672119 -1.595e-19 0)
(0.669652 -1.56758e-19 0)
(0.66715 -1.54056e-19 0)
(0.664614 -1.51392e-19 0)
(0.66204 -1.48766e-19 0)
(0.659429 -1.46178e-19 0)
(0.656777 -1.43628e-19 0)
(0.654085 -1.41114e-19 0)
(0.651349 -1.38637e-19 0)
(0.648569 -1.36196e-19 0)
(0.645742 -1.33791e-19 0)
(0.642867 -1.3142e-19 0)
(0.639941 -1.29085e-19 0)
(0.636963 -1.26783e-19 0)
(0.633929 -1.24515e-19 0)
(0.630838 -1.22281e-19 0)
(0.627686 -1.2008e-19 0)
(0.62447 -1.17911e-19 0)
(0.621189 -1.15775e-19 0)
(0.617837 -1.13669e-19 0)
(0.614412 -1.11596e-19 0)
(0.61091 -1.09553e-19 0)
(0.607327 -1.0754e-19 0)
(0.603658 -1.05556e-19 0)
(0.599898 -1.03602e-19 0)
(0.596042 -1.01677e-19 0)
(0.592085 -9.97795e-20 0)
(0.588019 -9.79092e-20 0)
(0.583839 -9.60655e-20 0)
(0.579537 -9.42474e-20 0)
(0.575104 -9.24541e-20 0)
(0.570532 -9.06846e-20 0)
(0.565809 -8.89377e-20 0)
(0.560927 -8.7212e-20 0)
(0.55587 -8.55062e-20 0)
(0.550627 -8.38186e-20 0)
(0.54518 -8.21471e-20 0)
(0.539513 -8.04897e-20 0)
(0.533605 -7.88437e-20 0)
(0.527433 -7.72061e-20 0)
(0.520971 -7.55736e-20 0)
(0.514187 -7.39421e-20 0)
(0.507047 -7.23068e-20 0)
(0.499506 -7.0662e-20 0)
(0.491516 -6.9001e-20 0)
(0.483016 -6.73155e-20 0)
(0.473931 -6.55955e-20 0)
(0.464172 -6.38287e-20 0)
(0.453624 -6.19997e-20 0)
(0.44214 -6.00886e-20 0)
(0.429532 -5.80696e-20 0)
(0.415543 -5.59084e-20 0)
(0.399819 -5.35573e-20 0)
(0.381851 -5.09482e-20 0)
(0.360868 -4.79783e-20 0)
(0.335626 -4.44823e-20 0)
(0.303945 -4.01717e-20 0)
(0.261559 -3.44838e-20 0)
(0.19924 -2.62058e-20 0)
(0.1029 -1.35001e-20 0)
)
;

boundaryField
{
    top_wall
    {
        type            noSlip;
    }
    inlet
    {
        type            cyclic;
    }
    bot_wall
    {
        type            noSlip;
    }
    outlet
    {
        type            cyclic;
    }
    frontAndBack
    {
        type            empty;
    }
}


// ************************************************************************* //
