# Wall shear stress
# Time          	patch           	min             	max             
0.5             	top_wall	(-3.99732289e-03 -3.14967182e-28 0.00000000e+00)	(-3.99732289e-03 -3.14967182e-28 0.00000000e+00)
0.5             	bot_wall	(-3.99731359e-03 -1.83407155e-20 0.00000000e+00)	(-3.99731359e-03 -1.83407155e-20 0.00000000e+00)
1               	top_wall	(-3.43633715e-03 -5.98946647e-26 0.00000000e+00)	(-3.43633715e-03 -5.98946647e-26 0.00000000e+00)
1               	bot_wall	(-3.43633127e-03 -1.03958432e-19 0.00000000e+00)	(-3.43633127e-03 -1.03958432e-19 0.00000000e+00)
1.5             	top_wall	(-3.15715909e-03 7.26097162e-25 0.00000000e+00)	(-3.15715909e-03 7.26097162e-25 0.00000000e+00)
1.5             	bot_wall	(-3.15715400e-03 -1.92644230e-19 0.00000000e+00)	(-3.15715400e-03 -1.92644230e-19 0.00000000e+00)
2               	top_wall	(-2.98346367e-03 9.59037451e-24 0.00000000e+00)	(-2.98346367e-03 9.59037451e-24 0.00000000e+00)
2               	bot_wall	(-2.98345954e-03 -2.47942645e-19 0.00000000e+00)	(-2.98345954e-03 -2.47942645e-19 0.00000000e+00)
2.5             	top_wall	(-2.86475160e-03 1.62914736e-23 0.00000000e+00)	(-2.86475160e-03 1.62914736e-23 0.00000000e+00)
2.5             	bot_wall	(-2.86474832e-03 5.81639101e-20 0.00000000e+00)	(-2.86474832e-03 5.81639101e-20 0.00000000e+00)
3               	top_wall	(-2.77961510e-03 -1.45310280e-23 0.00000000e+00)	(-2.77961510e-03 -1.45310280e-23 0.00000000e+00)
3               	bot_wall	(-2.77961258e-03 2.09049715e-20 0.00000000e+00)	(-2.77961258e-03 2.09049715e-20 0.00000000e+00)
3.5             	top_wall	(-2.71699975e-03 -1.10354024e-22 0.00000000e+00)	(-2.71699975e-03 -1.10354024e-22 0.00000000e+00)
3.5             	bot_wall	(-2.71699786e-03 2.83352492e-19 0.00000000e+00)	(-2.71699786e-03 2.83352492e-19 0.00000000e+00)
4               	top_wall	(-2.67043702e-03 -2.56000073e-22 0.00000000e+00)	(-2.67043702e-03 -2.56000073e-22 0.00000000e+00)
4               	bot_wall	(-2.67043561e-03 1.24000699e-20 0.00000000e+00)	(-2.67043561e-03 1.24000699e-20 0.00000000e+00)
4.5             	top_wall	(-2.63578640e-03 -3.83383658e-22 0.00000000e+00)	(-2.63578640e-03 -3.83383658e-22 0.00000000e+00)
4.5             	bot_wall	(-2.63578534e-03 1.33153538e-19 0.00000000e+00)	(-2.63578534e-03 1.33153538e-19 0.00000000e+00)
5               	top_wall	(-2.61021096e-03 -4.27516335e-22 0.00000000e+00)	(-2.61021096e-03 -4.27516335e-22 0.00000000e+00)
5               	bot_wall	(-2.61021018e-03 1.58682383e-19 0.00000000e+00)	(-2.61021018e-03 1.58682383e-19 0.00000000e+00)
5.5             	top_wall	(-2.59166317e-03 -3.69676015e-22 0.00000000e+00)	(-2.59166317e-03 -3.69676015e-22 0.00000000e+00)
5.5             	bot_wall	(-2.59166261e-03 1.05964718e-19 0.00000000e+00)	(-2.59166261e-03 1.05964718e-19 0.00000000e+00)
6               	top_wall	(-2.57860799e-03 -2.26528051e-22 0.00000000e+00)	(-2.57860799e-03 -2.26528051e-22 0.00000000e+00)
6               	bot_wall	(-2.57860759e-03 -1.20505675e-20 0.00000000e+00)	(-2.57860759e-03 -1.20505675e-20 0.00000000e+00)
6.5             	top_wall	(-2.56986206e-03 -2.02245159e-23 0.00000000e+00)	(-2.56986206e-03 -2.02245159e-23 0.00000000e+00)
6.5             	bot_wall	(-2.56986180e-03 2.11768877e-19 0.00000000e+00)	(-2.56986180e-03 2.11768877e-19 0.00000000e+00)
7               	top_wall	(-2.56449503e-03 2.29268721e-22 0.00000000e+00)	(-2.56449503e-03 2.29268721e-22 0.00000000e+00)
7               	bot_wall	(-2.56449488e-03 2.38392966e-19 0.00000000e+00)	(-2.56449488e-03 2.38392966e-19 0.00000000e+00)
7.5             	top_wall	(-2.56176688e-03 5.06551237e-22 0.00000000e+00)	(-2.56176688e-03 5.06551237e-22 0.00000000e+00)
7.5             	bot_wall	(-2.56176682e-03 1.37299521e-19 0.00000000e+00)	(-2.56176682e-03 1.37299521e-19 0.00000000e+00)
8               	top_wall	(-2.56108417e-03 3.34766662e-22 0.00000000e+00)	(-2.56108417e-03 3.34766662e-22 0.00000000e+00)
8               	bot_wall	(-2.56108417e-03 3.83924666e-20 0.00000000e+00)	(-2.56108417e-03 3.83924666e-20 0.00000000e+00)
8.5             	top_wall	(-2.56196834e-03 7.51245328e-22 0.00000000e+00)	(-2.56196834e-03 7.51245328e-22 0.00000000e+00)
8.5             	bot_wall	(-2.56196840e-03 6.74008701e-20 0.00000000e+00)	(-2.56196840e-03 6.74008701e-20 0.00000000e+00)
9               	top_wall	(-2.56403342e-03 7.26778453e-22 0.00000000e+00)	(-2.56403342e-03 7.26778453e-22 0.00000000e+00)
9               	bot_wall	(-2.56403352e-03 1.22129528e-19 0.00000000e+00)	(-2.56403352e-03 1.22129528e-19 0.00000000e+00)
9.5             	top_wall	(-2.56696840e-03 7.08919565e-22 0.00000000e+00)	(-2.56696840e-03 7.08919565e-22 0.00000000e+00)
9.5             	bot_wall	(-2.56696854e-03 7.92763149e-20 0.00000000e+00)	(-2.56696854e-03 7.92763149e-20 0.00000000e+00)
10              	top_wall	(-2.57052376e-03 6.85303128e-22 0.00000000e+00)	(-2.57052376e-03 6.85303128e-22 0.00000000e+00)
10              	bot_wall	(-2.57052392e-03 7.40480211e-20 0.00000000e+00)	(-2.57052392e-03 7.40480211e-20 0.00000000e+00)
