/*--------------------------------*- C++ -*----------------------------------*\
| =========                 |                                                 |
| \\      /  F ield         | OpenFOAM: The Open Source CFD Toolbox           |
|  \\    /   O peration     | Version:  2312                                  |
|   \\  /    A nd           | Website:  www.openfoam.com                      |
|    \\/     M anipulation  |                                                 |
\*---------------------------------------------------------------------------*/
FoamFile
{
    version     2.0;
    format      ascii;
    arch        "LSB;label=32;scalar=64";
    class       volVectorField;
    location    "100";
    object      U;
}
// * * * * * * * * * * * * * * * * * * * * * * * * * * * * * * * * * * * * * //

dimensions      [0 1 -1 0 0 0 0];

internalField   nonuniform List<vector> 
1000
(
(0.213767 -2.43052e-18 0)
(0.395552 -4.30847e-18 0)
(0.383266 -4.07577e-18 0)
(0.367177 -3.94943e-18 0)
(0.371375 -3.89643e-18 0)
(0.380689 -3.90919e-18 0)
(0.392486 -3.92118e-18 0)
(0.405396 -3.87973e-18 0)
(0.417638 -3.81918e-18 0)
(0.428578 -3.76745e-18 0)
(0.43835 -3.76513e-18 0)
(0.447139 -3.77419e-18 0)
(0.455086 -3.83329e-18 0)
(0.462308 -3.90832e-18 0)
(0.468902 -3.95839e-18 0)
(0.474951 -4.00631e-18 0)
(0.480526 -4.01904e-18 0)
(0.485688 -4.02911e-18 0)
(0.490488 -4.04718e-18 0)
(0.49497 -4.05958e-18 0)
(0.49917 -4.06809e-18 0)
(0.503122 -4.07387e-18 0)
(0.506852 -4.07774e-18 0)
(0.510384 -4.08023e-18 0)
(0.513738 -4.08175e-18 0)
(0.516932 -4.08258e-18 0)
(0.519981 -4.0829e-18 0)
(0.522897 -4.0827e-18 0)
(0.525694 -4.08196e-18 0)
(0.528381 -4.08081e-18 0)
(0.530967 -4.07951e-18 0)
(0.533461 -4.07822e-18 0)
(0.535871 -4.07695e-18 0)
(0.538201 -4.0757e-18 0)
(0.540458 -4.07447e-18 0)
(0.542646 -4.07323e-18 0)
(0.544769 -4.07199e-18 0)
(0.546831 -4.07074e-18 0)
(0.548836 -4.06947e-18 0)
(0.550786 -4.06817e-18 0)
(0.552685 -4.06685e-18 0)
(0.554536 -4.06549e-18 0)
(0.55634 -4.0641e-18 0)
(0.5581 -4.06266e-18 0)
(0.559819 -4.06117e-18 0)
(0.561497 -4.05964e-18 0)
(0.563138 -4.05806e-18 0)
(0.564742 -4.05643e-18 0)
(0.566311 -4.05475e-18 0)
(0.567847 -4.05302e-18 0)
(0.569351 -4.05124e-18 0)
(0.570825 -4.04941e-18 0)
(0.572269 -4.04754e-18 0)
(0.573685 -4.04562e-18 0)
(0.575074 -4.04366e-18 0)
(0.576437 -4.04167e-18 0)
(0.577774 -4.03964e-18 0)
(0.579088 -4.03759e-18 0)
(0.580378 -4.03552e-18 0)
(0.581645 -4.03343e-18 0)
(0.582891 -4.03133e-18 0)
(0.584116 -4.02922e-18 0)
(0.58532 -4.02712e-18 0)
(0.586505 -4.02502e-18 0)
(0.587671 -4.02295e-18 0)
(0.588818 -4.02089e-18 0)
(0.589948 -4.01887e-18 0)
(0.59106 -4.01689e-18 0)
(0.592156 -4.01496e-18 0)
(0.593235 -4.01309e-18 0)
(0.594298 -4.01129e-18 0)
(0.595346 -4.00957e-18 0)
(0.59638 -4.00793e-18 0)
(0.597398 -4.0064e-18 0)
(0.598403 -4.00497e-18 0)
(0.599394 -4.00367e-18 0)
(0.600371 -4.0025e-18 0)
(0.601336 -4.00147e-18 0)
(0.602288 -4.0006e-18 0)
(0.603227 -3.99988e-18 0)
(0.604155 -3.99933e-18 0)
(0.605071 -3.99897e-18 0)
(0.605975 -3.99881e-18 0)
(0.606868 -3.99888e-18 0)
(0.607751 -3.99917e-18 0)
(0.608622 -3.99971e-18 0)
(0.609484 -4.00051e-18 0)
(0.610335 -4.00157e-18 0)
(0.611177 -4.00291e-18 0)
(0.612008 -4.00455e-18 0)
(0.612831 -4.0065e-18 0)
(0.613644 -4.00875e-18 0)
(0.614448 -4.01134e-18 0)
(0.615243 -4.01425e-18 0)
(0.616029 -4.01751e-18 0)
(0.616807 -4.02112e-18 0)
(0.617577 -4.02508e-18 0)
(0.618338 -4.0294e-18 0)
(0.619091 -4.03408e-18 0)
(0.619837 -4.03912e-18 0)
(0.620575 -4.04453e-18 0)
(0.621305 -4.05029e-18 0)
(0.622028 -4.05642e-18 0)
(0.622744 -4.0629e-18 0)
(0.623452 -4.06973e-18 0)
(0.624154 -4.07676e-18 0)
(0.624849 -4.08398e-18 0)
(0.625537 -4.09136e-18 0)
(0.626218 -4.09885e-18 0)
(0.626893 -4.10656e-18 0)
(0.627561 -4.11444e-18 0)
(0.628224 -4.12245e-18 0)
(0.62888 -4.13054e-18 0)
(0.62953 -4.13869e-18 0)
(0.630174 -4.14685e-18 0)
(0.630813 -4.15497e-18 0)
(0.631446 -4.163e-18 0)
(0.632073 -4.17088e-18 0)
(0.632694 -4.17857e-18 0)
(0.633311 -4.186e-18 0)
(0.633921 -4.19328e-18 0)
(0.634527 -4.20035e-18 0)
(0.635127 -4.20719e-18 0)
(0.635723 -4.21377e-18 0)
(0.636313 -4.2201e-18 0)
(0.636898 -4.22623e-18 0)
(0.637479 -4.23223e-18 0)
(0.638055 -4.23822e-18 0)
(0.638626 -4.24434e-18 0)
(0.639192 -4.25082e-18 0)
(0.639754 -4.25798e-18 0)
(0.640312 -4.26621e-18 0)
(0.640865 -4.27595e-18 0)
(0.641414 -4.28778e-18 0)
(0.641958 -4.30262e-18 0)
(0.642498 -4.32138e-18 0)
(0.643034 -4.34541e-18 0)
(0.643566 -4.3762e-18 0)
(0.644094 -4.41647e-18 0)
(0.644618 -4.45443e-18 0)
(0.645138 -4.32744e-18 0)
(0.645654 -4.20154e-18 0)
(0.646166 -4.24017e-18 0)
(0.646675 -4.28132e-18 0)
(0.647179 -4.31326e-18 0)
(0.64768 -4.33872e-18 0)
(0.648178 -4.35916e-18 0)
(0.648671 -4.37591e-18 0)
(0.649162 -4.38982e-18 0)
(0.649648 -4.4017e-18 0)
(0.650132 -4.41202e-18 0)
(0.650612 -4.42118e-18 0)
(0.651088 -4.42941e-18 0)
(0.651561 -4.43678e-18 0)
(0.652031 -4.4434e-18 0)
(0.652498 -4.44914e-18 0)
(0.652961 -4.4539e-18 0)
(0.653421 -4.4575e-18 0)
(0.653879 -4.45972e-18 0)
(0.654333 -4.46027e-18 0)
(0.654784 -4.45885e-18 0)
(0.655232 -4.45525e-18 0)
(0.655677 -4.4493e-18 0)
(0.656119 -4.44088e-18 0)
(0.656558 -4.43e-18 0)
(0.656994 -4.41688e-18 0)
(0.657427 -4.40215e-18 0)
(0.657858 -4.3868e-18 0)
(0.658285 -4.37279e-18 0)
(0.65871 -4.35999e-18 0)
(0.659132 -4.37928e-18 0)
(0.659552 -4.5409e-18 0)
(0.659969 -4.70097e-18 0)
(0.660383 -4.7168e-18 0)
(0.660794 -4.69889e-18 0)
(0.661203 -4.67821e-18 0)
(0.66161 -4.65463e-18 0)
(0.662014 -4.63013e-18 0)
(0.662415 -4.60574e-18 0)
(0.662814 -4.58203e-18 0)
(0.66321 -4.55929e-18 0)
(0.663604 -4.53758e-18 0)
(0.663995 -4.51687e-18 0)
(0.664385 -4.49706e-18 0)
(0.664771 -4.47792e-18 0)
(0.665156 -4.45925e-18 0)
(0.665538 -4.44083e-18 0)
(0.665917 -4.42253e-18 0)
(0.666295 -4.40423e-18 0)
(0.66667 -4.38578e-18 0)
(0.667043 -4.3672e-18 0)
(0.667414 -4.34845e-18 0)
(0.667782 -4.3296e-18 0)
(0.668149 -4.31079e-18 0)
(0.668513 -4.29227e-18 0)
(0.668875 -4.2744e-18 0)
(0.669235 -4.2577e-18 0)
(0.669593 -4.2429e-18 0)
(0.669948 -4.23088e-18 0)
(0.670302 -4.22301e-18 0)
(0.670653 -4.22125e-18 0)
(0.671003 -4.22622e-18 0)
(0.671351 -4.2569e-18 0)
(0.671696 -4.22934e-18 0)
(0.67204 -4.20142e-18 0)
(0.672381 -4.23027e-18 0)
(0.672721 -4.23252e-18 0)
(0.673059 -4.22718e-18 0)
(0.673394 -4.21492e-18 0)
(0.673728 -4.19773e-18 0)
(0.67406 -4.177e-18 0)
(0.67439 -4.15377e-18 0)
(0.674719 -4.1287e-18 0)
(0.675045 -4.10239e-18 0)
(0.67537 -4.07527e-18 0)
(0.675692 -4.04772e-18 0)
(0.676013 -4.01992e-18 0)
(0.676333 -3.99208e-18 0)
(0.67665 -3.96441e-18 0)
(0.676966 -3.93695e-18 0)
(0.67728 -3.90982e-18 0)
(0.677592 -3.88312e-18 0)
(0.677902 -3.85693e-18 0)
(0.678211 -3.83129e-18 0)
(0.678518 -3.80626e-18 0)
(0.678823 -3.78186e-18 0)
(0.679127 -3.75811e-18 0)
(0.679429 -3.73505e-18 0)
(0.679729 -3.71267e-18 0)
(0.680028 -3.69098e-18 0)
(0.680325 -3.6699e-18 0)
(0.68062 -3.64952e-18 0)
(0.680914 -3.6298e-18 0)
(0.681206 -3.61075e-18 0)
(0.681497 -3.59234e-18 0)
(0.681786 -3.57454e-18 0)
(0.682073 -3.55732e-18 0)
(0.682359 -3.54066e-18 0)
(0.682643 -3.52452e-18 0)
(0.682926 -3.50887e-18 0)
(0.683208 -3.49367e-18 0)
(0.683487 -3.47897e-18 0)
(0.683766 -3.46475e-18 0)
(0.684042 -3.45097e-18 0)
(0.684318 -3.43761e-18 0)
(0.684591 -3.42464e-18 0)
(0.684864 -3.41204e-18 0)
(0.685134 -3.39977e-18 0)
(0.685404 -3.38782e-18 0)
(0.685672 -3.37615e-18 0)
(0.685938 -3.36476e-18 0)
(0.686203 -3.35361e-18 0)
(0.686467 -3.34269e-18 0)
(0.686729 -3.33198e-18 0)
(0.68699 -3.32147e-18 0)
(0.687249 -3.31115e-18 0)
(0.687507 -3.30099e-18 0)
(0.687764 -3.291e-18 0)
(0.688019 -3.28117e-18 0)
(0.688273 -3.27146e-18 0)
(0.688525 -3.26188e-18 0)
(0.688776 -3.25248e-18 0)
(0.689026 -3.24324e-18 0)
(0.689275 -3.23416e-18 0)
(0.689522 -3.22522e-18 0)
(0.689767 -3.21642e-18 0)
(0.690012 -3.20775e-18 0)
(0.690255 -3.19919e-18 0)
(0.690497 -3.19075e-18 0)
(0.690737 -3.1824e-18 0)
(0.690976 -3.17415e-18 0)
(0.691214 -3.16599e-18 0)
(0.691451 -3.15791e-18 0)
(0.691686 -3.14991e-18 0)
(0.69192 -3.14198e-18 0)
(0.692153 -3.13411e-18 0)
(0.692384 -3.1263e-18 0)
(0.692614 -3.11855e-18 0)
(0.692843 -3.11085e-18 0)
(0.693071 -3.1032e-18 0)
(0.693298 -3.09559e-18 0)
(0.693523 -3.08802e-18 0)
(0.693747 -3.08049e-18 0)
(0.69397 -3.07299e-18 0)
(0.694191 -3.06552e-18 0)
(0.694411 -3.05809e-18 0)
(0.69463 -3.05067e-18 0)
(0.694848 -3.04328e-18 0)
(0.695065 -3.03591e-18 0)
(0.695281 -3.02856e-18 0)
(0.695495 -3.02123e-18 0)
(0.695708 -3.01391e-18 0)
(0.69592 -3.0066e-18 0)
(0.696131 -2.9993e-18 0)
(0.69634 -2.99201e-18 0)
(0.696548 -2.98473e-18 0)
(0.696756 -2.97746e-18 0)
(0.696962 -2.97019e-18 0)
(0.697167 -2.96293e-18 0)
(0.69737 -2.95568e-18 0)
(0.697573 -2.94842e-18 0)
(0.697774 -2.94117e-18 0)
(0.697975 -2.93392e-18 0)
(0.698174 -2.92667e-18 0)
(0.698372 -2.91943e-18 0)
(0.698568 -2.91218e-18 0)
(0.698764 -2.90493e-18 0)
(0.698959 -2.89769e-18 0)
(0.699152 -2.89044e-18 0)
(0.699344 -2.8832e-18 0)
(0.699536 -2.87595e-18 0)
(0.699726 -2.86871e-18 0)
(0.699915 -2.86146e-18 0)
(0.700103 -2.85422e-18 0)
(0.700289 -2.84697e-18 0)
(0.700475 -2.83973e-18 0)
(0.70066 -2.83249e-18 0)
(0.700843 -2.82525e-18 0)
(0.701025 -2.818e-18 0)
(0.701207 -2.81077e-18 0)
(0.701387 -2.80353e-18 0)
(0.701566 -2.79629e-18 0)
(0.701744 -2.78906e-18 0)
(0.701921 -2.78183e-18 0)
(0.702097 -2.7746e-18 0)
(0.702272 -2.76738e-18 0)
(0.702445 -2.76016e-18 0)
(0.702618 -2.75295e-18 0)
(0.702789 -2.74573e-18 0)
(0.70296 -2.73853e-18 0)
(0.703129 -2.73132e-18 0)
(0.703298 -2.72413e-18 0)
(0.703465 -2.71693e-18 0)
(0.703631 -2.70975e-18 0)
(0.703796 -2.70257e-18 0)
(0.703961 -2.69539e-18 0)
(0.704124 -2.68822e-18 0)
(0.704286 -2.68106e-18 0)
(0.704447 -2.6739e-18 0)
(0.704607 -2.66675e-18 0)
(0.704766 -2.65961e-18 0)
(0.704923 -2.65248e-18 0)
(0.70508 -2.64535e-18 0)
(0.705236 -2.63823e-18 0)
(0.705391 -2.63111e-18 0)
(0.705544 -2.62401e-18 0)
(0.705697 -2.61691e-18 0)
(0.705849 -2.60982e-18 0)
(0.705999 -2.60274e-18 0)
(0.706149 -2.59566e-18 0)
(0.706298 -2.58859e-18 0)
(0.706445 -2.58153e-18 0)
(0.706592 -2.57448e-18 0)
(0.706737 -2.56744e-18 0)
(0.706882 -2.5604e-18 0)
(0.707025 -2.55338e-18 0)
(0.707168 -2.54636e-18 0)
(0.707309 -2.53934e-18 0)
(0.707449 -2.53234e-18 0)
(0.707589 -2.52534e-18 0)
(0.707727 -2.51835e-18 0)
(0.707864 -2.51137e-18 0)
(0.708001 -2.5044e-18 0)
(0.708136 -2.49743e-18 0)
(0.708271 -2.49047e-18 0)
(0.708404 -2.48352e-18 0)
(0.708536 -2.47658e-18 0)
(0.708668 -2.46964e-18 0)
(0.708798 -2.46271e-18 0)
(0.708927 -2.45578e-18 0)
(0.709055 -2.44887e-18 0)
(0.709183 -2.44196e-18 0)
(0.709309 -2.43506e-18 0)
(0.709434 -2.42816e-18 0)
(0.709559 -2.42127e-18 0)
(0.709682 -2.41439e-18 0)
(0.709804 -2.40751e-18 0)
(0.709926 -2.40064e-18 0)
(0.710046 -2.39378e-18 0)
(0.710165 -2.38692e-18 0)
(0.710284 -2.38007e-18 0)
(0.710401 -2.37322e-18 0)
(0.710517 -2.36638e-18 0)
(0.710633 -2.35954e-18 0)
(0.710747 -2.35271e-18 0)
(0.710861 -2.34589e-18 0)
(0.710973 -2.33907e-18 0)
(0.711084 -2.33226e-18 0)
(0.711195 -2.32545e-18 0)
(0.711304 -2.31865e-18 0)
(0.711413 -2.31185e-18 0)
(0.71152 -2.30505e-18 0)
(0.711626 -2.29827e-18 0)
(0.711732 -2.29148e-18 0)
(0.711836 -2.28471e-18 0)
(0.71194 -2.27793e-18 0)
(0.712042 -2.27116e-18 0)
(0.712144 -2.2644e-18 0)
(0.712244 -2.25764e-18 0)
(0.712344 -2.25088e-18 0)
(0.712443 -2.24413e-18 0)
(0.71254 -2.23739e-18 0)
(0.712637 -2.23064e-18 0)
(0.712732 -2.22391e-18 0)
(0.712827 -2.21717e-18 0)
(0.712921 -2.21044e-18 0)
(0.713013 -2.20372e-18 0)
(0.713105 -2.197e-18 0)
(0.713196 -2.19028e-18 0)
(0.713285 -2.18357e-18 0)
(0.713374 -2.17686e-18 0)
(0.713462 -2.17016e-18 0)
(0.713549 -2.16346e-18 0)
(0.713635 -2.15676e-18 0)
(0.713719 -2.15007e-18 0)
(0.713803 -2.14338e-18 0)
(0.713886 -2.1367e-18 0)
(0.713968 -2.13002e-18 0)
(0.714049 -2.12334e-18 0)
(0.714129 -2.11667e-18 0)
(0.714208 -2.11e-18 0)
(0.714285 -2.10334e-18 0)
(0.714362 -2.09668e-18 0)
(0.714438 -2.09002e-18 0)
(0.714513 -2.08337e-18 0)
(0.714587 -2.07673e-18 0)
(0.71466 -2.07008e-18 0)
(0.714732 -2.06345e-18 0)
(0.714803 -2.05681e-18 0)
(0.714874 -2.05018e-18 0)
(0.714943 -2.04356e-18 0)
(0.715011 -2.03693e-18 0)
(0.715078 -2.03032e-18 0)
(0.715144 -2.0237e-18 0)
(0.715209 -2.0171e-18 0)
(0.715273 -2.01049e-18 0)
(0.715337 -2.00389e-18 0)
(0.715399 -1.9973e-18 0)
(0.71546 -1.99071e-18 0)
(0.71552 -1.98412e-18 0)
(0.71558 -1.97754e-18 0)
(0.715638 -1.97096e-18 0)
(0.715695 -1.96439e-18 0)
(0.715751 -1.95782e-18 0)
(0.715807 -1.95126e-18 0)
(0.715861 -1.94471e-18 0)
(0.715914 -1.93815e-18 0)
(0.715967 -1.93161e-18 0)
(0.716018 -1.92506e-18 0)
(0.716069 -1.91853e-18 0)
(0.716118 -1.91199e-18 0)
(0.716166 -1.90547e-18 0)
(0.716214 -1.89895e-18 0)
(0.71626 -1.89243e-18 0)
(0.716306 -1.88592e-18 0)
(0.71635 -1.87941e-18 0)
(0.716394 -1.87291e-18 0)
(0.716436 -1.86642e-18 0)
(0.716478 -1.85993e-18 0)
(0.716518 -1.85344e-18 0)
(0.716558 -1.84697e-18 0)
(0.716597 -1.8405e-18 0)
(0.716634 -1.83403e-18 0)
(0.716671 -1.82757e-18 0)
(0.716706 -1.82111e-18 0)
(0.716741 -1.81467e-18 0)
(0.716775 -1.80822e-18 0)
(0.716807 -1.80179e-18 0)
(0.716839 -1.79536e-18 0)
(0.71687 -1.78893e-18 0)
(0.716899 -1.78252e-18 0)
(0.716928 -1.77611e-18 0)
(0.716956 -1.7697e-18 0)
(0.716983 -1.7633e-18 0)
(0.717008 -1.75691e-18 0)
(0.717033 -1.75053e-18 0)
(0.717057 -1.74415e-18 0)
(0.71708 -1.73778e-18 0)
(0.717101 -1.73142e-18 0)
(0.717122 -1.72506e-18 0)
(0.717142 -1.71871e-18 0)
(0.717161 -1.71237e-18 0)
(0.717179 -1.70603e-18 0)
(0.717195 -1.6997e-18 0)
(0.717211 -1.69338e-18 0)
(0.717226 -1.68706e-18 0)
(0.71724 -1.68076e-18 0)
(0.717253 -1.67446e-18 0)
(0.717265 -1.66817e-18 0)
(0.717276 -1.66188e-18 0)
(0.717286 -1.6556e-18 0)
(0.717294 -1.64932e-18 0)
(0.717302 -1.64305e-18 0)
(0.717309 -1.63678e-18 0)
(0.717315 -1.63052e-18 0)
(0.71732 -1.62427e-18 0)
(0.717324 -1.61802e-18 0)
(0.717327 -1.61178e-18 0)
(0.717329 -1.60554e-18 0)
(0.71733 -1.59931e-18 0)
(0.71733 -1.59309e-18 0)
(0.717329 -1.58687e-18 0)
(0.717327 -1.58066e-18 0)
(0.717324 -1.57445e-18 0)
(0.71732 -1.56825e-18 0)
(0.717315 -1.56206e-18 0)
(0.717309 -1.55587e-18 0)
(0.717302 -1.54969e-18 0)
(0.717294 -1.54352e-18 0)
(0.717286 -1.53735e-18 0)
(0.717276 -1.53119e-18 0)
(0.717265 -1.52504e-18 0)
(0.717253 -1.51889e-18 0)
(0.71724 -1.51275e-18 0)
(0.717226 -1.50662e-18 0)
(0.717211 -1.50049e-18 0)
(0.717195 -1.49437e-18 0)
(0.717179 -1.48826e-18 0)
(0.717161 -1.48216e-18 0)
(0.717142 -1.47606e-18 0)
(0.717122 -1.46997e-18 0)
(0.717101 -1.46389e-18 0)
(0.71708 -1.45781e-18 0)
(0.717057 -1.45174e-18 0)
(0.717033 -1.44568e-18 0)
(0.717008 -1.43963e-18 0)
(0.716983 -1.43359e-18 0)
(0.716956 -1.42756e-18 0)
(0.716928 -1.42154e-18 0)
(0.716899 -1.41553e-18 0)
(0.71687 -1.40953e-18 0)
(0.716839 -1.40354e-18 0)
(0.716807 -1.39756e-18 0)
(0.716775 -1.39159e-18 0)
(0.716741 -1.38563e-18 0)
(0.716706 -1.37969e-18 0)
(0.716671 -1.37375e-18 0)
(0.716634 -1.36783e-18 0)
(0.716597 -1.36191e-18 0)
(0.716558 -1.35601e-18 0)
(0.716518 -1.35012e-18 0)
(0.716478 -1.34423e-18 0)
(0.716436 -1.33836e-18 0)
(0.716394 -1.3325e-18 0)
(0.71635 -1.32666e-18 0)
(0.716306 -1.32082e-18 0)
(0.71626 -1.31499e-18 0)
(0.716214 -1.30918e-18 0)
(0.716166 -1.30338e-18 0)
(0.716118 -1.29758e-18 0)
(0.716069 -1.2918e-18 0)
(0.716018 -1.28604e-18 0)
(0.715967 -1.28028e-18 0)
(0.715914 -1.27454e-18 0)
(0.715861 -1.2688e-18 0)
(0.715807 -1.26308e-18 0)
(0.715751 -1.25737e-18 0)
(0.715695 -1.25167e-18 0)
(0.715638 -1.24599e-18 0)
(0.71558 -1.24031e-18 0)
(0.71552 -1.23465e-18 0)
(0.71546 -1.229e-18 0)
(0.715399 -1.22337e-18 0)
(0.715337 -1.21774e-18 0)
(0.715273 -1.21213e-18 0)
(0.715209 -1.20653e-18 0)
(0.715144 -1.20094e-18 0)
(0.715078 -1.19536e-18 0)
(0.715011 -1.1898e-18 0)
(0.714943 -1.18425e-18 0)
(0.714874 -1.17871e-18 0)
(0.714804 -1.17319e-18 0)
(0.714732 -1.16767e-18 0)
(0.71466 -1.16217e-18 0)
(0.714587 -1.15668e-18 0)
(0.714513 -1.15121e-18 0)
(0.714438 -1.14575e-18 0)
(0.714362 -1.1403e-18 0)
(0.714285 -1.13486e-18 0)
(0.714208 -1.12944e-18 0)
(0.714129 -1.12403e-18 0)
(0.714049 -1.11863e-18 0)
(0.713968 -1.11325e-18 0)
(0.713886 -1.10787e-18 0)
(0.713803 -1.10252e-18 0)
(0.713719 -1.09717e-18 0)
(0.713635 -1.09184e-18 0)
(0.713549 -1.08652e-18 0)
(0.713462 -1.08121e-18 0)
(0.713374 -1.07592e-18 0)
(0.713285 -1.07064e-18 0)
(0.713196 -1.06538e-18 0)
(0.713105 -1.06013e-18 0)
(0.713013 -1.05489e-18 0)
(0.712921 -1.04966e-18 0)
(0.712827 -1.04445e-18 0)
(0.712732 -1.03925e-18 0)
(0.712637 -1.03407e-18 0)
(0.71254 -1.0289e-18 0)
(0.712443 -1.02374e-18 0)
(0.712344 -1.0186e-18 0)
(0.712245 -1.01347e-18 0)
(0.712144 -1.00835e-18 0)
(0.712042 -1.00325e-18 0)
(0.71194 -9.98157e-19 0)
(0.711836 -9.93082e-19 0)
(0.711732 -9.88021e-19 0)
(0.711626 -9.82974e-19 0)
(0.71152 -9.7794e-19 0)
(0.711413 -9.72921e-19 0)
(0.711304 -9.67915e-19 0)
(0.711195 -9.62923e-19 0)
(0.711084 -9.57946e-19 0)
(0.710973 -9.52982e-19 0)
(0.710861 -9.48032e-19 0)
(0.710747 -9.43096e-19 0)
(0.710633 -9.38175e-19 0)
(0.710517 -9.33267e-19 0)
(0.710401 -9.28374e-19 0)
(0.710284 -9.23494e-19 0)
(0.710165 -9.18629e-19 0)
(0.710046 -9.13778e-19 0)
(0.709926 -9.08941e-19 0)
(0.709804 -9.04119e-19 0)
(0.709682 -8.9931e-19 0)
(0.709559 -8.94516e-19 0)
(0.709434 -8.89736e-19 0)
(0.709309 -8.84971e-19 0)
(0.709183 -8.80219e-19 0)
(0.709055 -8.75482e-19 0)
(0.708927 -8.70759e-19 0)
(0.708798 -8.66051e-19 0)
(0.708668 -8.61357e-19 0)
(0.708536 -8.56677e-19 0)
(0.708404 -8.52012e-19 0)
(0.708271 -8.47361e-19 0)
(0.708136 -8.42724e-19 0)
(0.708001 -8.38102e-19 0)
(0.707864 -8.33495e-19 0)
(0.707727 -8.28901e-19 0)
(0.707589 -8.24323e-19 0)
(0.707449 -8.19758e-19 0)
(0.707309 -8.15208e-19 0)
(0.707168 -8.10673e-19 0)
(0.707025 -8.06152e-19 0)
(0.706882 -8.01646e-19 0)
(0.706737 -7.97154e-19 0)
(0.706592 -7.92676e-19 0)
(0.706445 -7.88213e-19 0)
(0.706298 -7.83765e-19 0)
(0.706149 -7.79331e-19 0)
(0.705999 -7.74912e-19 0)
(0.705849 -7.70507e-19 0)
(0.705697 -7.66117e-19 0)
(0.705544 -7.61742e-19 0)
(0.705391 -7.57381e-19 0)
(0.705236 -7.53034e-19 0)
(0.70508 -7.48703e-19 0)
(0.704923 -7.44385e-19 0)
(0.704766 -7.40083e-19 0)
(0.704607 -7.35795e-19 0)
(0.704447 -7.31521e-19 0)
(0.704286 -7.27262e-19 0)
(0.704124 -7.23018e-19 0)
(0.703961 -7.18788e-19 0)
(0.703796 -7.14573e-19 0)
(0.703631 -7.10373e-19 0)
(0.703465 -7.06187e-19 0)
(0.703298 -7.02016e-19 0)
(0.703129 -6.97859e-19 0)
(0.70296 -6.93717e-19 0)
(0.702789 -6.8959e-19 0)
(0.702618 -6.85477e-19 0)
(0.702445 -6.81379e-19 0)
(0.702272 -6.77295e-19 0)
(0.702097 -6.73226e-19 0)
(0.701921 -6.69172e-19 0)
(0.701744 -6.65132e-19 0)
(0.701566 -6.61107e-19 0)
(0.701387 -6.57097e-19 0)
(0.701207 -6.53101e-19 0)
(0.701025 -6.49119e-19 0)
(0.700843 -6.45153e-19 0)
(0.70066 -6.41201e-19 0)
(0.700475 -6.37263e-19 0)
(0.700289 -6.3334e-19 0)
(0.700103 -6.29432e-19 0)
(0.699915 -6.25538e-19 0)
(0.699726 -6.21659e-19 0)
(0.699536 -6.17794e-19 0)
(0.699344 -6.13944e-19 0)
(0.699152 -6.10108e-19 0)
(0.698959 -6.06288e-19 0)
(0.698764 -6.02481e-19 0)
(0.698568 -5.98689e-19 0)
(0.698372 -5.94912e-19 0)
(0.698174 -5.91149e-19 0)
(0.697975 -5.87401e-19 0)
(0.697774 -5.83667e-19 0)
(0.697573 -5.79948e-19 0)
(0.69737 -5.76243e-19 0)
(0.697167 -5.72553e-19 0)
(0.696962 -5.68877e-19 0)
(0.696756 -5.65216e-19 0)
(0.696548 -5.61569e-19 0)
(0.69634 -5.57937e-19 0)
(0.696131 -5.54319e-19 0)
(0.69592 -5.50715e-19 0)
(0.695708 -5.47126e-19 0)
(0.695495 -5.43552e-19 0)
(0.695281 -5.39992e-19 0)
(0.695065 -5.36446e-19 0)
(0.694848 -5.32915e-19 0)
(0.69463 -5.29398e-19 0)
(0.694411 -5.25895e-19 0)
(0.694191 -5.22407e-19 0)
(0.69397 -5.18933e-19 0)
(0.693747 -5.15474e-19 0)
(0.693523 -5.12029e-19 0)
(0.693298 -5.08598e-19 0)
(0.693071 -5.05182e-19 0)
(0.692843 -5.01779e-19 0)
(0.692614 -4.98392e-19 0)
(0.692384 -4.95018e-19 0)
(0.692153 -4.91659e-19 0)
(0.69192 -4.88314e-19 0)
(0.691686 -4.84983e-19 0)
(0.691451 -4.81667e-19 0)
(0.691214 -4.78364e-19 0)
(0.690976 -4.75076e-19 0)
(0.690737 -4.71803e-19 0)
(0.690497 -4.68543e-19 0)
(0.690255 -4.65298e-19 0)
(0.690012 -4.62066e-19 0)
(0.689767 -4.58849e-19 0)
(0.689522 -4.55646e-19 0)
(0.689275 -4.52457e-19 0)
(0.689026 -4.49283e-19 0)
(0.688776 -4.46122e-19 0)
(0.688525 -4.42976e-19 0)
(0.688273 -4.39843e-19 0)
(0.688019 -4.36725e-19 0)
(0.687764 -4.33621e-19 0)
(0.687507 -4.3053e-19 0)
(0.687249 -4.27454e-19 0)
(0.68699 -4.24392e-19 0)
(0.686729 -4.21344e-19 0)
(0.686467 -4.18309e-19 0)
(0.686203 -4.15289e-19 0)
(0.685938 -4.12283e-19 0)
(0.685672 -4.0929e-19 0)
(0.685404 -4.06312e-19 0)
(0.685134 -4.03347e-19 0)
(0.684864 -4.00397e-19 0)
(0.684591 -3.9746e-19 0)
(0.684318 -3.94537e-19 0)
(0.684042 -3.91628e-19 0)
(0.683766 -3.88733e-19 0)
(0.683487 -3.85851e-19 0)
(0.683208 -3.82984e-19 0)
(0.682926 -3.8013e-19 0)
(0.682643 -3.7729e-19 0)
(0.682359 -3.74464e-19 0)
(0.682073 -3.71651e-19 0)
(0.681786 -3.68852e-19 0)
(0.681497 -3.66067e-19 0)
(0.681206 -3.63296e-19 0)
(0.680914 -3.60538e-19 0)
(0.68062 -3.57794e-19 0)
(0.680325 -3.55064e-19 0)
(0.680028 -3.52347e-19 0)
(0.679729 -3.49644e-19 0)
(0.679429 -3.46954e-19 0)
(0.679127 -3.44279e-19 0)
(0.678823 -3.41616e-19 0)
(0.678518 -3.38967e-19 0)
(0.678211 -3.36332e-19 0)
(0.677902 -3.3371e-19 0)
(0.677592 -3.31102e-19 0)
(0.67728 -3.28507e-19 0)
(0.676966 -3.25926e-19 0)
(0.67665 -3.23358e-19 0)
(0.676333 -3.20803e-19 0)
(0.676013 -3.18262e-19 0)
(0.675692 -3.15735e-19 0)
(0.67537 -3.13221e-19 0)
(0.675045 -3.1072e-19 0)
(0.674719 -3.08232e-19 0)
(0.67439 -3.05758e-19 0)
(0.67406 -3.03297e-19 0)
(0.673728 -3.00849e-19 0)
(0.673394 -2.98415e-19 0)
(0.673059 -2.95994e-19 0)
(0.672721 -2.93586e-19 0)
(0.672381 -2.91192e-19 0)
(0.67204 -2.8881e-19 0)
(0.671696 -2.86442e-19 0)
(0.671351 -2.84087e-19 0)
(0.671003 -2.81745e-19 0)
(0.670653 -2.79416e-19 0)
(0.670302 -2.77101e-19 0)
(0.669948 -2.74798e-19 0)
(0.669592 -2.72509e-19 0)
(0.669235 -2.70232e-19 0)
(0.668875 -2.67969e-19 0)
(0.668513 -2.65719e-19 0)
(0.668149 -2.63481e-19 0)
(0.667782 -2.61257e-19 0)
(0.667414 -2.59046e-19 0)
(0.667043 -2.56847e-19 0)
(0.66667 -2.54662e-19 0)
(0.666295 -2.52489e-19 0)
(0.665917 -2.5033e-19 0)
(0.665538 -2.48183e-19 0)
(0.665156 -2.46049e-19 0)
(0.664771 -2.43928e-19 0)
(0.664385 -2.4182e-19 0)
(0.663995 -2.39724e-19 0)
(0.663604 -2.37642e-19 0)
(0.66321 -2.35572e-19 0)
(0.662814 -2.33514e-19 0)
(0.662415 -2.3147e-19 0)
(0.662014 -2.29438e-19 0)
(0.66161 -2.27419e-19 0)
(0.661203 -2.25413e-19 0)
(0.660794 -2.23419e-19 0)
(0.660383 -2.21438e-19 0)
(0.659969 -2.1947e-19 0)
(0.659552 -2.17514e-19 0)
(0.659132 -2.15571e-19 0)
(0.65871 -2.1364e-19 0)
(0.658285 -2.11722e-19 0)
(0.657858 -2.09816e-19 0)
(0.657427 -2.07923e-19 0)
(0.656994 -2.06042e-19 0)
(0.656558 -2.04174e-19 0)
(0.656118 -2.02318e-19 0)
(0.655676 -2.00474e-19 0)
(0.655232 -1.98643e-19 0)
(0.654784 -1.96825e-19 0)
(0.654333 -1.95019e-19 0)
(0.653879 -1.93225e-19 0)
(0.653421 -1.91443e-19 0)
(0.652961 -1.89674e-19 0)
(0.652498 -1.87916e-19 0)
(0.652031 -1.86172e-19 0)
(0.651561 -1.84439e-19 0)
(0.651088 -1.82719e-19 0)
(0.650612 -1.8101e-19 0)
(0.650132 -1.79314e-19 0)
(0.649648 -1.77631e-19 0)
(0.649162 -1.75959e-19 0)
(0.648671 -1.74299e-19 0)
(0.648178 -1.72652e-19 0)
(0.64768 -1.71016e-19 0)
(0.647179 -1.69393e-19 0)
(0.646674 -1.67781e-19 0)
(0.646166 -1.66182e-19 0)
(0.645654 -1.64594e-19 0)
(0.645138 -1.63019e-19 0)
(0.644618 -1.61455e-19 0)
(0.644094 -1.59904e-19 0)
(0.643566 -1.58364e-19 0)
(0.643034 -1.56836e-19 0)
(0.642498 -1.5532e-19 0)
(0.641958 -1.53816e-19 0)
(0.641413 -1.52324e-19 0)
(0.640865 -1.50843e-19 0)
(0.640312 -1.49374e-19 0)
(0.639754 -1.47917e-19 0)
(0.639192 -1.46472e-19 0)
(0.638626 -1.45038e-19 0)
(0.638055 -1.43616e-19 0)
(0.637479 -1.42206e-19 0)
(0.636898 -1.40807e-19 0)
(0.636313 -1.3942e-19 0)
(0.635723 -1.38044e-19 0)
(0.635127 -1.3668e-19 0)
(0.634527 -1.35328e-19 0)
(0.633921 -1.33987e-19 0)
(0.63331 -1.32657e-19 0)
(0.632694 -1.31339e-19 0)
(0.632073 -1.30033e-19 0)
(0.631446 -1.28737e-19 0)
(0.630813 -1.27453e-19 0)
(0.630174 -1.26181e-19 0)
(0.62953 -1.24919e-19 0)
(0.62888 -1.23669e-19 0)
(0.628224 -1.2243e-19 0)
(0.627561 -1.21203e-19 0)
(0.626893 -1.19986e-19 0)
(0.626218 -1.18781e-19 0)
(0.625536 -1.17587e-19 0)
(0.624848 -1.16404e-19 0)
(0.624154 -1.15232e-19 0)
(0.623452 -1.14071e-19 0)
(0.622744 -1.12922e-19 0)
(0.622028 -1.11783e-19 0)
(0.621305 -1.10655e-19 0)
(0.620575 -1.09538e-19 0)
(0.619837 -1.08432e-19 0)
(0.619091 -1.07337e-19 0)
(0.618338 -1.06253e-19 0)
(0.617577 -1.0518e-19 0)
(0.616807 -1.04117e-19 0)
(0.616029 -1.03066e-19 0)
(0.615243 -1.02025e-19 0)
(0.614448 -1.00994e-19 0)
(0.613644 -9.99747e-20 0)
(0.612831 -9.89657e-20 0)
(0.612008 -9.79674e-20 0)
(0.611177 -9.69796e-20 0)
(0.610335 -9.60024e-20 0)
(0.609484 -9.50357e-20 0)
(0.608622 -9.40794e-20 0)
(0.607751 -9.31336e-20 0)
(0.606868 -9.21982e-20 0)
(0.605975 -9.12731e-20 0)
(0.605071 -9.03583e-20 0)
(0.604155 -8.94538e-20 0)
(0.603227 -8.85594e-20 0)
(0.602288 -8.76752e-20 0)
(0.601336 -8.68011e-20 0)
(0.600371 -8.59371e-20 0)
(0.599394 -8.5083e-20 0)
(0.598403 -8.42388e-20 0)
(0.597398 -8.34045e-20 0)
(0.59638 -8.25799e-20 0)
(0.595346 -8.17652e-20 0)
(0.594298 -8.096e-20 0)
(0.593235 -8.01645e-20 0)
(0.592156 -7.93785e-20 0)
(0.59106 -7.8602e-20 0)
(0.589948 -7.78349e-20 0)
(0.588818 -7.70771e-20 0)
(0.587671 -7.63286e-20 0)
(0.586505 -7.55892e-20 0)
(0.58532 -7.48588e-20 0)
(0.584116 -7.41375e-20 0)
(0.582891 -7.3425e-20 0)
(0.581645 -7.27213e-20 0)
(0.580378 -7.20263e-20 0)
(0.579088 -7.13399e-20 0)
(0.577774 -7.0662e-20 0)
(0.576437 -6.99925e-20 0)
(0.575074 -6.93311e-20 0)
(0.573685 -6.86779e-20 0)
(0.572269 -6.80326e-20 0)
(0.570825 -6.73952e-20 0)
(0.569351 -6.67655e-20 0)
(0.567847 -6.61432e-20 0)
(0.566311 -6.55284e-20 0)
(0.564742 -6.49207e-20 0)
(0.563138 -6.432e-20 0)
(0.561497 -6.37262e-20 0)
(0.559819 -6.31389e-20 0)
(0.5581 -6.25579e-20 0)
(0.55634 -6.19832e-20 0)
(0.554536 -6.14142e-20 0)
(0.552685 -6.0851e-20 0)
(0.550786 -6.0293e-20 0)
(0.548836 -5.974e-20 0)
(0.546831 -5.91917e-20 0)
(0.544769 -5.86478e-20 0)
(0.542646 -5.81077e-20 0)
(0.540458 -5.75712e-20 0)
(0.538201 -5.70377e-20 0)
(0.535871 -5.65067e-20 0)
(0.533461 -5.59778e-20 0)
(0.530967 -5.54502e-20 0)
(0.528381 -5.49233e-20 0)
(0.525694 -5.43962e-20 0)
(0.522897 -5.38682e-20 0)
(0.519981 -5.33381e-20 0)
(0.516932 -5.28048e-20 0)
(0.513738 -5.22668e-20 0)
(0.510384 -5.17229e-20 0)
(0.506852 -5.11714e-20 0)
(0.503122 -5.06104e-20 0)
(0.49917 -5.00378e-20 0)
(0.49497 -4.94512e-20 0)
(0.490488 -4.88479e-20 0)
(0.485688 -4.82246e-20 0)
(0.480526 -4.75776e-20 0)
(0.474951 -4.69026e-20 0)
(0.468902 -4.61943e-20 0)
(0.462308 -4.54467e-20 0)
(0.455086 -4.46522e-20 0)
(0.447139 -4.38017e-20 0)
(0.43835 -4.28837e-20 0)
(0.428578 -4.18834e-20 0)
(0.417638 -4.07812e-20 0)
(0.405396 -3.95512e-20 0)
(0.392486 -3.81547e-20 0)
(0.380689 -3.65242e-20 0)
(0.371375 -3.44626e-20 0)
(0.367177 -3.15552e-20 0)
(0.383266 -2.73137e-20 0)
(0.395552 -2.10088e-20 0)
(0.213767 -9.86352e-21 0)
)
;

boundaryField
{
    top_wall
    {
        type            noSlip;
    }
    inlet
    {
        type            cyclic;
    }
    bot_wall
    {
        type            noSlip;
    }
    outlet
    {
        type            cyclic;
    }
    frontAndBack
    {
        type            empty;
    }
}


// ************************************************************************* //
