/*--------------------------------*- C++ -*----------------------------------*\
| =========                 |                                                 |
| \\      /  F ield         | OpenFOAM: The Open Source CFD Toolbox           |
|  \\    /   O peration     | Version:  2312                                  |
|   \\  /    A nd           | Website:  www.openfoam.com                      |
|    \\/     M anipulation  |                                                 |
\*---------------------------------------------------------------------------*/
FoamFile
{
    version     2.0;
    format      ascii;
    arch        "LSB;label=32;scalar=64";
    class       volScalarField;
    location    "7.655";
    object      k;
}
// * * * * * * * * * * * * * * * * * * * * * * * * * * * * * * * * * * * * * //

dimensions      [0 2 -2 0 0 0 0];

internalField   nonuniform List<scalar> 
500
(
0.191821
0.190193
0.221434
0.244546
0.260216
0.271156
0.279055
0.284909
0.289328
0.292702
0.295293
0.297281
0.298798
0.299936
0.300769
0.301351
0.301724
0.301922
0.301971
0.301895
0.30171
0.301432
0.301072
0.300641
0.300148
0.299601
0.299005
0.298365
0.297688
0.296977
0.296234
0.295465
0.294671
0.293855
0.293018
0.292164
0.291293
0.290407
0.289507
0.288595
0.287672
0.286739
0.285796
0.284844
0.283885
0.282918
0.281944
0.280965
0.279979
0.278989
0.277993
0.276993
0.275989
0.274981
0.273969
0.272954
0.271936
0.270915
0.269891
0.268865
0.267836
0.266805
0.265772
0.264737
0.2637
0.262661
0.26162
0.260578
0.259534
0.258489
0.257442
0.256394
0.255344
0.254294
0.253241
0.252188
0.251134
0.250078
0.249021
0.247963
0.246904
0.245844
0.244783
0.243721
0.242658
0.241594
0.240529
0.239463
0.238396
0.237328
0.236259
0.235189
0.234118
0.233047
0.231974
0.230901
0.229826
0.228751
0.227675
0.226599
0.225521
0.224443
0.223363
0.222283
0.221203
0.220121
0.219039
0.217956
0.216873
0.215788
0.214704
0.213618
0.212532
0.211445
0.210358
0.209271
0.208182
0.207094
0.206005
0.204916
0.203826
0.202736
0.201646
0.200555
0.199465
0.198374
0.197283
0.196192
0.195102
0.194011
0.19292
0.19183
0.19074
0.18965
0.188561
0.187472
0.186384
0.185296
0.184209
0.183122
0.182037
0.180952
0.179868
0.178785
0.177704
0.176624
0.175545
0.174467
0.173391
0.172317
0.171244
0.170173
0.169104
0.168037
0.166973
0.16591
0.16485
0.163792
0.162737
0.161685
0.160635
0.159589
0.158546
0.157505
0.156469
0.155436
0.154406
0.153381
0.152359
0.151341
0.150328
0.149319
0.148315
0.147315
0.146321
0.145331
0.144347
0.143368
0.142395
0.141427
0.140466
0.13951
0.138561
0.137618
0.136683
0.135754
0.134832
0.133917
0.13301
0.132111
0.131219
0.130336
0.129461
0.128595
0.127737
0.126889
0.126049
0.125219
0.124399
0.123589
0.122789
0.121999
0.12122
0.120451
0.119694
0.118948
0.118214
0.117492
0.116782
0.116084
0.115398
0.114726
0.114067
0.113421
0.112788
0.11217
0.111566
0.110976
0.110401
0.10984
0.109295
0.108765
0.108251
0.107753
0.107271
0.106805
0.106356
0.105923
0.105508
0.10511
0.104729
0.104366
0.104021
0.103694
0.103385
0.103095
0.102823
0.10257
0.102336
0.102121
0.101925
0.101748
0.101591
0.101453
0.101335
0.101236
0.101157
0.101098
0.101058
0.101038
0.101038
0.101058
0.101098
0.101157
0.101236
0.101335
0.101453
0.101591
0.101748
0.101925
0.102121
0.102336
0.10257
0.102823
0.103095
0.103385
0.103694
0.104021
0.104366
0.104729
0.10511
0.105508
0.105923
0.106356
0.106805
0.107271
0.107753
0.108251
0.108765
0.109295
0.10984
0.110401
0.110976
0.111566
0.11217
0.112789
0.113421
0.114067
0.114726
0.115399
0.116084
0.116782
0.117492
0.118214
0.118948
0.119694
0.120451
0.12122
0.121999
0.122789
0.123589
0.124399
0.125219
0.126049
0.126889
0.127737
0.128595
0.129461
0.130336
0.13122
0.132111
0.13301
0.133917
0.134832
0.135754
0.136683
0.137619
0.138561
0.13951
0.140466
0.141427
0.142395
0.143368
0.144347
0.145331
0.146321
0.147315
0.148315
0.149319
0.150328
0.151341
0.152359
0.153381
0.154406
0.155436
0.156469
0.157506
0.158546
0.159589
0.160635
0.161685
0.162737
0.163792
0.16485
0.16591
0.166973
0.168037
0.169104
0.170173
0.171244
0.172317
0.173391
0.174467
0.175545
0.176624
0.177704
0.178786
0.179868
0.180952
0.182037
0.183122
0.184209
0.185296
0.186384
0.187472
0.188561
0.18965
0.19074
0.19183
0.192921
0.194011
0.195102
0.196193
0.197283
0.198374
0.199465
0.200555
0.201646
0.202736
0.203826
0.204916
0.206005
0.207094
0.208183
0.209271
0.210358
0.211445
0.212532
0.213618
0.214704
0.215788
0.216873
0.217956
0.219039
0.220121
0.221203
0.222283
0.223363
0.224443
0.225521
0.226599
0.227675
0.228751
0.229826
0.230901
0.231974
0.233047
0.234118
0.235189
0.236259
0.237328
0.238396
0.239463
0.240529
0.241594
0.242658
0.243721
0.244783
0.245844
0.246904
0.247963
0.249021
0.250078
0.251134
0.252188
0.253241
0.254294
0.255344
0.256394
0.257442
0.258489
0.259534
0.260578
0.26162
0.262661
0.2637
0.264737
0.265772
0.266805
0.267836
0.268865
0.269891
0.270915
0.271936
0.272954
0.273969
0.274981
0.275989
0.276993
0.277993
0.278989
0.279979
0.280965
0.281944
0.282918
0.283885
0.284844
0.285796
0.286739
0.287672
0.288595
0.289507
0.290407
0.291293
0.292164
0.293018
0.293855
0.294671
0.295465
0.296234
0.296976
0.297688
0.298365
0.299005
0.299601
0.300148
0.300641
0.301072
0.301432
0.30171
0.301895
0.301971
0.301921
0.301724
0.301351
0.300769
0.299936
0.298798
0.297281
0.295293
0.292702
0.289328
0.284909
0.279055
0.271156
0.260216
0.244546
0.221434
0.190193
0.191821
)
;

boundaryField
{
    top_wall
    {
        type            kLowReWallFunction;
        value           uniform 0.00448064;
    }
    inlet
    {
        type            cyclic;
    }
    bot_wall
    {
        type            kLowReWallFunction;
        value           uniform 0.00448064;
    }
    outlet
    {
        type            cyclic;
    }
    frontAndBack
    {
        type            empty;
    }
}


// ************************************************************************* //
