/*--------------------------------*- C++ -*----------------------------------*\
| =========                 |                                                 |
| \\      /  F ield         | OpenFOAM: The Open Source CFD Toolbox           |
|  \\    /   O peration     | Version:  2312                                  |
|   \\  /    A nd           | Website:  www.openfoam.com                      |
|    \\/     M anipulation  |                                                 |
\*---------------------------------------------------------------------------*/
FoamFile
{
    version     2.0;
    format      ascii;
    arch        "LSB;label=32;scalar=64";
    class       volScalarField;
    location    "7.655";
    object      nut;
}
// * * * * * * * * * * * * * * * * * * * * * * * * * * * * * * * * * * * * * //

dimensions      [0 2 -1 0 0 0 0];

internalField   nonuniform List<scalar> 
500
(
4.61759e-06
1.04939e-05
2.16753e-05
3.43681e-05
4.72286e-05
5.99157e-05
7.23437e-05
8.44984e-05
9.63871e-05
0.000108023
0.000119421
0.000130594
0.000141554
0.000152314
0.000162883
0.00017327
0.000183482
0.000193527
0.00020341
0.000213139
0.000222717
0.00023215
0.000241441
0.000250596
0.000259616
0.000268506
0.000277269
0.000285908
0.000294424
0.000302822
0.000311102
0.000319268
0.00032732
0.000335262
0.000343095
0.00035082
0.000358439
0.000365954
0.000373367
0.000380677
0.000387888
0.000394999
0.000402013
0.00040893
0.000415751
0.000422478
0.000429111
0.000435651
0.0004421
0.000448458
0.000454726
0.000460904
0.000466995
0.000472997
0.000478913
0.000484742
0.000490486
0.000496145
0.000501719
0.00050721
0.000512619
0.000517944
0.000523188
0.000528351
0.000533433
0.000538436
0.000543358
0.000548202
0.000552967
0.000557654
0.000562264
0.000566796
0.000571253
0.000575633
0.000579938
0.000584168
0.000588323
0.000592404
0.000596412
0.000600346
0.000604207
0.000607997
0.000611714
0.00061536
0.000618936
0.00062244
0.000625875
0.00062924
0.000632536
0.000635763
0.000638921
0.000642012
0.000645036
0.000647992
0.000650882
0.000653705
0.000656463
0.000659155
0.000661783
0.000664346
0.000666845
0.00066928
0.000671652
0.000673961
0.000676208
0.000678393
0.000680517
0.000682579
0.000684581
0.000686523
0.000688405
0.000690227
0.000691991
0.000693696
0.000695343
0.000696932
0.000698465
0.00069994
0.000701359
0.000702722
0.00070403
0.000705283
0.000706481
0.000707625
0.000708716
0.000709753
0.000710737
0.000711669
0.000712549
0.000713377
0.000714154
0.000714881
0.000715558
0.000716184
0.000716762
0.00071729
0.000717771
0.000718203
0.000718587
0.000718925
0.000719216
0.000719461
0.00071966
0.000719813
0.000719922
0.000719986
0.000720007
0.000719984
0.000719917
0.000719809
0.000719658
0.000719465
0.000719231
0.000718956
0.000718641
0.000718286
0.000717891
0.000717458
0.000716986
0.000716475
0.000715928
0.000715343
0.000714721
0.000714063
0.00071337
0.000712641
0.000711878
0.00071108
0.000710249
0.000709384
0.000708486
0.000707557
0.000706595
0.000705603
0.00070458
0.000703527
0.000702444
0.000701332
0.000700192
0.000699025
0.00069783
0.000696609
0.000695362
0.00069409
0.000692793
0.000691473
0.00069013
0.000688764
0.000687378
0.00068597
0.000684543
0.000683097
0.000681633
0.000680153
0.000678656
0.000677144
0.000675618
0.00067408
0.00067253
0.000670969
0.000669399
0.000667821
0.000666237
0.000664647
0.000663054
0.000661458
0.000659861
0.000658264
0.00065667
0.00065508
0.000653496
0.000651919
0.000650351
0.000648794
0.00064725
0.00064572
0.000644207
0.000642712
0.000641238
0.000639787
0.000638359
0.000636958
0.000635586
0.000634243
0.000632933
0.000631657
0.000630416
0.000629214
0.000628051
0.000626929
0.000625851
0.000624817
0.000623829
0.000622888
0.000621997
0.000621156
0.000620366
0.000619628
0.000618944
0.000618314
0.00061774
0.000617221
0.000616758
0.000616353
0.000616004
0.000615714
0.000615481
0.000615306
0.00061519
0.000615131
0.000615131
0.00061519
0.000615306
0.000615481
0.000615714
0.000616005
0.000616353
0.000616758
0.000617221
0.00061774
0.000618315
0.000618944
0.000619628
0.000620366
0.000621156
0.000621997
0.000622889
0.000623829
0.000624817
0.000625851
0.00062693
0.000628051
0.000629214
0.000630417
0.000631657
0.000632933
0.000634244
0.000635586
0.000636959
0.00063836
0.000639787
0.000641239
0.000642713
0.000644207
0.00064572
0.00064725
0.000648794
0.000650351
0.000651919
0.000653496
0.000655081
0.000656671
0.000658265
0.000659861
0.000661458
0.000663054
0.000664648
0.000666238
0.000667822
0.0006694
0.00067097
0.00067253
0.000674081
0.000675619
0.000677145
0.000678656
0.000680153
0.000681634
0.000683098
0.000684544
0.000685971
0.000687378
0.000688765
0.00069013
0.000691474
0.000692794
0.00069409
0.000695362
0.000696609
0.000697831
0.000699025
0.000700193
0.000701333
0.000702445
0.000703527
0.00070458
0.000705604
0.000706596
0.000707557
0.000708487
0.000709385
0.000710249
0.000711081
0.000711878
0.000712642
0.000713371
0.000714064
0.000714722
0.000715343
0.000715928
0.000716476
0.000716986
0.000717458
0.000717892
0.000718286
0.000718641
0.000718957
0.000719231
0.000719465
0.000719658
0.000719809
0.000719918
0.000719984
0.000720007
0.000719987
0.000719923
0.000719814
0.00071966
0.000719461
0.000719216
0.000718926
0.000718588
0.000718203
0.000717771
0.000717291
0.000716762
0.000716185
0.000715558
0.000714882
0.000714155
0.000713378
0.000712549
0.000711669
0.000710737
0.000709753
0.000708716
0.000707626
0.000706482
0.000705283
0.000704031
0.000702723
0.00070136
0.00069994
0.000698465
0.000696933
0.000695343
0.000693696
0.000691991
0.000690228
0.000688405
0.000686523
0.000684582
0.00068258
0.000680517
0.000678394
0.000676209
0.000673962
0.000671652
0.00066928
0.000666845
0.000664346
0.000661783
0.000659155
0.000656463
0.000653705
0.000650882
0.000647992
0.000645036
0.000642013
0.000638922
0.000635763
0.000632536
0.00062924
0.000625875
0.000622441
0.000618936
0.000615361
0.000611715
0.000607997
0.000604208
0.000600346
0.000596412
0.000592404
0.000588323
0.000584168
0.000579938
0.000575633
0.000571253
0.000566797
0.000562264
0.000557654
0.000552967
0.000548202
0.000543358
0.000538436
0.000533434
0.000528351
0.000523188
0.000517944
0.000512619
0.00050721
0.000501719
0.000496145
0.000490486
0.000484742
0.000478913
0.000472997
0.000466995
0.000460904
0.000454726
0.000448458
0.0004421
0.000435651
0.000429111
0.000422478
0.000415751
0.00040893
0.000402013
0.000394999
0.000387888
0.000380677
0.000373367
0.000365954
0.000358439
0.00035082
0.000343095
0.000335262
0.00032732
0.000319268
0.000311102
0.000302822
0.000294424
0.000285908
0.000277269
0.000268506
0.000259616
0.000250596
0.000241441
0.00023215
0.000222717
0.000213139
0.00020341
0.000193527
0.000183482
0.00017327
0.000162883
0.000152314
0.000141554
0.000130594
0.000119421
0.000108023
9.63871e-05
8.44984e-05
7.23437e-05
5.99157e-05
4.72286e-05
3.43681e-05
2.16753e-05
1.04939e-05
4.61759e-06
)
;

boundaryField
{
    top_wall
    {
        type            nutLowReWallFunction;
        value           uniform 0;
    }
    inlet
    {
        type            cyclic;
    }
    bot_wall
    {
        type            nutLowReWallFunction;
        value           uniform 0;
    }
    outlet
    {
        type            cyclic;
    }
    frontAndBack
    {
        type            empty;
    }
}


// ************************************************************************* //
