/*--------------------------------*- C++ -*----------------------------------*\
| =========                 |                                                 |
| \\      /  F ield         | OpenFOAM: The Open Source CFD Toolbox           |
|  \\    /   O peration     | Version:  2312                                  |
|   \\  /    A nd           | Website:  www.openfoam.com                      |
|    \\/     M anipulation  |                                                 |
\*---------------------------------------------------------------------------*/
FoamFile
{
    version     2.0;
    format      ascii;
    arch        "LSB;label=32;scalar=64";
    class       volVectorField;
    location    "7.655";
    object      U;
}
// * * * * * * * * * * * * * * * * * * * * * * * * * * * * * * * * * * * * * //

dimensions      [0 1 -1 0 0 0 0];

internalField   nonuniform List<vector> 
500
(
(0.351201 -4.38742e-18 0)
(0.818038 -8.04038e-18 0)
(1.15607 -7.76782e-18 0)
(1.39967 -7.52398e-18 0)
(1.58691 -7.47105e-18 0)
(1.73874 -7.47269e-18 0)
(1.8666 -7.46595e-18 0)
(1.97723 -7.4562e-18 0)
(2.07488 -7.44817e-18 0)
(2.16239 -7.44203e-18 0)
(2.24177 -7.43676e-18 0)
(2.31447 -7.43349e-18 0)
(2.38157 -7.43345e-18 0)
(2.44394 -7.43652e-18 0)
(2.50221 -7.44283e-18 0)
(2.55694 -7.45158e-18 0)
(2.60855 -7.4633e-18 0)
(2.6574 -7.46127e-18 0)
(2.70378 -7.447e-18 0)
(2.74795 -7.45497e-18 0)
(2.79013 -7.48527e-18 0)
(2.83048 -7.51212e-18 0)
(2.86919 -7.5331e-18 0)
(2.90637 -7.54147e-18 0)
(2.94216 -7.54819e-18 0)
(2.97667 -7.56039e-18 0)
(3.00998 -7.56831e-18 0)
(3.04219 -7.58055e-18 0)
(3.07337 -7.60451e-18 0)
(3.10358 -7.61957e-18 0)
(3.1329 -7.61193e-18 0)
(3.16136 -7.60367e-18 0)
(3.18904 -7.62429e-18 0)
(3.21597 -7.6481e-18 0)
(3.24219 -7.64894e-18 0)
(3.26774 -7.6492e-18 0)
(3.29267 -7.65853e-18 0)
(3.31699 -7.66277e-18 0)
(3.34075 -7.66515e-18 0)
(3.36397 -7.6713e-18 0)
(3.38667 -7.67107e-18 0)
(3.40888 -7.6685e-18 0)
(3.43062 -7.66414e-18 0)
(3.45192 -7.65895e-18 0)
(3.47278 -7.65338e-18 0)
(3.49324 -7.64775e-18 0)
(3.51331 -7.64221e-18 0)
(3.533 -7.63685e-18 0)
(3.55232 -7.63171e-18 0)
(3.5713 -7.62676e-18 0)
(3.58995 -7.62219e-18 0)
(3.60828 -7.61795e-18 0)
(3.62629 -7.61398e-18 0)
(3.64401 -7.61024e-18 0)
(3.66144 -7.60666e-18 0)
(3.67859 -7.60318e-18 0)
(3.69547 -7.59977e-18 0)
(3.7121 -7.59639e-18 0)
(3.72847 -7.59299e-18 0)
(3.7446 -7.58956e-18 0)
(3.7605 -7.58607e-18 0)
(3.77617 -7.5825e-18 0)
(3.79161 -7.57885e-18 0)
(3.80685 -7.5751e-18 0)
(3.82187 -7.57124e-18 0)
(3.8367 -7.56729e-18 0)
(3.85133 -7.56324e-18 0)
(3.86577 -7.5591e-18 0)
(3.88002 -7.55489e-18 0)
(3.8941 -7.55061e-18 0)
(3.908 -7.54628e-18 0)
(3.92173 -7.54192e-18 0)
(3.9353 -7.53755e-18 0)
(3.9487 -7.53318e-18 0)
(3.96194 -7.52884e-18 0)
(3.97504 -7.52455e-18 0)
(3.98798 -7.52032e-18 0)
(4.00078 -7.51619e-18 0)
(4.01343 -7.51215e-18 0)
(4.02595 -7.50824e-18 0)
(4.03833 -7.50446e-18 0)
(4.05058 -7.50083e-18 0)
(4.06269 -7.49735e-18 0)
(4.07468 -7.49403e-18 0)
(4.08655 -7.49086e-18 0)
(4.09829 -7.48783e-18 0)
(4.10992 -7.48492e-18 0)
(4.12143 -7.48212e-18 0)
(4.13283 -7.47942e-18 0)
(4.14411 -7.47679e-18 0)
(4.15528 -7.47421e-18 0)
(4.16635 -7.47164e-18 0)
(4.17731 -7.46901e-18 0)
(4.18817 -7.46628e-18 0)
(4.19893 -7.46337e-18 0)
(4.20958 -7.46018e-18 0)
(4.22014 -7.45679e-18 0)
(4.23061 -7.4531e-18 0)
(4.24097 -7.44901e-18 0)
(4.25125 -7.44445e-18 0)
(4.26144 -7.43948e-18 0)
(4.27153 -7.43407e-18 0)
(4.28154 -7.42852e-18 0)
(4.29146 -7.41983e-18 0)
(4.30129 -7.40818e-18 0)
(4.31104 -7.39984e-18 0)
(4.32071 -7.39927e-18 0)
(4.33029 -7.38729e-18 0)
(4.3398 -7.34384e-18 0)
(4.34922 -7.3003e-18 0)
(4.35857 -7.28797e-18 0)
(4.36784 -7.2866e-18 0)
(4.37703 -7.27694e-18 0)
(4.38615 -7.26357e-18 0)
(4.3952 -7.24939e-18 0)
(4.40417 -7.23406e-18 0)
(4.41306 -7.21727e-18 0)
(4.42189 -7.19833e-18 0)
(4.43064 -7.17667e-18 0)
(4.43933 -7.14881e-18 0)
(4.44794 -7.13349e-18 0)
(4.45649 -7.11783e-18 0)
(4.46497 -7.08918e-18 0)
(4.47338 -7.06611e-18 0)
(4.48173 -7.04506e-18 0)
(4.49 -7.02521e-18 0)
(4.49822 -7.00581e-18 0)
(4.50637 -6.98616e-18 0)
(4.51445 -6.96568e-18 0)
(4.52247 -6.94385e-18 0)
(4.53043 -6.92118e-18 0)
(4.53832 -6.88319e-18 0)
(4.54616 -6.84784e-18 0)
(4.55393 -6.81493e-18 0)
(4.56163 -6.78468e-18 0)
(4.56928 -6.77307e-18 0)
(4.57687 -6.74539e-18 0)
(4.5844 -6.70926e-18 0)
(4.59186 -6.67801e-18 0)
(4.59927 -6.66251e-18 0)
(4.60662 -6.66765e-18 0)
(4.61391 -6.65863e-18 0)
(4.62114 -6.58384e-18 0)
(4.62831 -6.51176e-18 0)
(4.63542 -6.51102e-18 0)
(4.64248 -6.53168e-18 0)
(4.64948 -6.55639e-18 0)
(4.65642 -6.5809e-18 0)
(4.6633 -6.59206e-18 0)
(4.67013 -6.60832e-18 0)
(4.6769 -6.62391e-18 0)
(4.68361 -6.63351e-18 0)
(4.69026 -6.65562e-18 0)
(4.69686 -6.67704e-18 0)
(4.7034 -6.69567e-18 0)
(4.70989 -6.71197e-18 0)
(4.71631 -6.72469e-18 0)
(4.72269 -6.71493e-18 0)
(4.729 -6.70022e-18 0)
(4.73526 -6.66971e-18 0)
(4.74146 -6.6433e-18 0)
(4.74761 -6.61487e-18 0)
(4.7537 -6.54803e-18 0)
(4.75973 -6.49652e-18 0)
(4.76571 -6.46236e-18 0)
(4.77163 -6.44499e-18 0)
(4.77749 -6.4146e-18 0)
(4.7833 -6.34386e-18 0)
(4.78905 -6.29305e-18 0)
(4.79474 -6.27269e-18 0)
(4.80038 -6.23544e-18 0)
(4.80596 -6.18184e-18 0)
(4.81148 -6.13082e-18 0)
(4.81695 -6.09627e-18 0)
(4.82236 -6.07462e-18 0)
(4.82771 -6.03511e-18 0)
(4.833 -5.98062e-18 0)
(4.83823 -5.92968e-18 0)
(4.84341 -5.87898e-18 0)
(4.84853 -5.82871e-18 0)
(4.85359 -5.7995e-18 0)
(4.85859 -5.79116e-18 0)
(4.86353 -5.73504e-18 0)
(4.86842 -5.65793e-18 0)
(4.87324 -5.62922e-18 0)
(4.878 -5.61626e-18 0)
(4.88271 -5.59799e-18 0)
(4.88735 -5.58863e-18 0)
(4.89194 -5.55879e-18 0)
(4.89646 -5.49828e-18 0)
(4.90092 -5.43633e-18 0)
(4.90532 -5.40583e-18 0)
(4.90966 -5.38741e-18 0)
(4.91393 -5.34615e-18 0)
(4.91815 -5.30398e-18 0)
(4.9223 -5.24527e-18 0)
(4.92639 -5.16765e-18 0)
(4.93041 -5.10889e-18 0)
(4.93437 -5.07172e-18 0)
(4.93826 -5.05508e-18 0)
(4.94209 -5.02909e-18 0)
(4.94586 -4.9783e-18 0)
(4.94956 -4.94988e-18 0)
(4.95319 -4.94143e-18 0)
(4.95676 -4.91791e-18 0)
(4.96026 -4.87633e-18 0)
(4.96369 -4.83555e-18 0)
(4.96706 -4.79841e-18 0)
(4.97036 -4.72892e-18 0)
(4.97358 -4.6645e-18 0)
(4.97674 -4.61738e-18 0)
(4.97983 -4.54012e-18 0)
(4.98285 -4.44806e-18 0)
(4.9858 -4.40517e-18 0)
(4.98867 -4.41055e-18 0)
(4.99147 -4.40619e-18 0)
(4.99421 -4.37788e-18 0)
(4.99686 -4.32423e-18 0)
(4.99945 -4.26615e-18 0)
(5.00196 -4.22927e-18 0)
(5.0044 -4.21152e-18 0)
(5.00676 -4.19121e-18 0)
(5.00904 -4.15256e-18 0)
(5.01125 -4.12684e-18 0)
(5.01339 -4.10166e-18 0)
(5.01544 -4.04531e-18 0)
(5.01742 -4.00666e-18 0)
(5.01932 -3.9884e-18 0)
(5.02114 -3.91864e-18 0)
(5.02288 -3.82853e-18 0)
(5.02454 -3.73792e-18 0)
(5.02613 -3.66646e-18 0)
(5.02763 -3.64868e-18 0)
(5.02905 -3.61367e-18 0)
(5.03039 -3.56188e-18 0)
(5.03165 -3.51352e-18 0)
(5.03282 -3.48369e-18 0)
(5.03392 -3.47077e-18 0)
(5.03493 -3.46939e-18 0)
(5.03585 -3.45475e-18 0)
(5.0367 -3.37624e-18 0)
(5.03746 -3.29416e-18 0)
(5.03814 -3.25246e-18 0)
(5.03873 -3.23581e-18 0)
(5.03924 -3.24028e-18 0)
(5.03966 -3.22505e-18 0)
(5.04 -3.1921e-18 0)
(5.04025 -3.10719e-18 0)
(5.04042 -2.96453e-18 0)
(5.04051 -2.86437e-18 0)
(5.04051 -2.84425e-18 0)
(5.04042 -2.81906e-18 0)
(5.04025 -2.75992e-18 0)
(5.04 -2.6893e-18 0)
(5.03966 -2.5664e-18 0)
(5.03924 -2.47952e-18 0)
(5.03873 -2.47261e-18 0)
(5.03813 -2.44455e-18 0)
(5.03746 -2.33761e-18 0)
(5.0367 -2.23598e-18 0)
(5.03585 -2.19291e-18 0)
(5.03493 -2.15306e-18 0)
(5.03392 -2.11373e-18 0)
(5.03282 -2.05672e-18 0)
(5.03165 -2.0029e-18 0)
(5.03039 -1.97153e-18 0)
(5.02905 -1.93957e-18 0)
(5.02763 -1.90395e-18 0)
(5.02613 -1.81224e-18 0)
(5.02454 -1.67596e-18 0)
(5.02288 -1.59669e-18 0)
(5.02114 -1.56281e-18 0)
(5.01932 -1.52966e-18 0)
(5.01742 -1.48766e-18 0)
(5.01544 -1.43577e-18 0)
(5.01339 -1.39589e-18 0)
(5.01125 -1.3613e-18 0)
(5.00904 -1.33875e-18 0)
(5.00676 -1.3324e-18 0)
(5.0044 -1.30674e-18 0)
(5.00196 -1.25706e-18 0)
(4.99945 -1.23109e-18 0)
(4.99686 -1.21882e-18 0)
(4.99421 -1.19291e-18 0)
(4.99147 -1.15392e-18 0)
(4.98867 -1.10044e-18 0)
(4.98579 -1.04441e-18 0)
(4.98285 -9.82409e-19 0)
(4.97983 -9.13719e-19 0)
(4.97674 -8.57798e-19 0)
(4.97358 -8.18371e-19 0)
(4.97036 -7.9372e-19 0)
(4.96706 -7.51492e-19 0)
(4.96369 -7.1018e-19 0)
(4.96026 -6.84948e-19 0)
(4.95676 -6.40586e-19 0)
(4.95319 -6.32032e-19 0)
(4.94956 -6.06485e-19 0)
(4.94586 -5.23357e-19 0)
(4.94209 -4.43384e-19 0)
(4.93826 -4.01934e-19 0)
(4.93437 -3.78204e-19 0)
(4.93041 -3.38521e-19 0)
(4.92638 -2.8081e-19 0)
(4.9223 -2.08515e-19 0)
(4.91815 -1.77272e-19 0)
(4.91393 -1.68734e-19 0)
(4.90966 -1.42889e-19 0)
(4.90532 -1.26149e-19 0)
(4.90092 -6.57929e-20 0)
(4.89646 1.15862e-20 0)
(4.89194 4.66029e-20 0)
(4.88735 8.06086e-20 0)
(4.88271 1.04519e-19 0)
(4.878 1.16293e-19 0)
(4.87324 1.32051e-19 0)
(4.86842 1.48197e-19 0)
(4.86353 1.62167e-19 0)
(4.85859 1.74409e-19 0)
(4.85359 1.85165e-19 0)
(4.84853 1.94627e-19 0)
(4.84341 2.02942e-19 0)
(4.83823 2.10287e-19 0)
(4.833 2.16815e-19 0)
(4.82771 2.22582e-19 0)
(4.82236 2.27696e-19 0)
(4.81695 2.32249e-19 0)
(4.81148 2.36318e-19 0)
(4.80596 2.39965e-19 0)
(4.80038 2.43251e-19 0)
(4.79474 2.46161e-19 0)
(4.78905 2.48742e-19 0)
(4.7833 2.51037e-19 0)
(4.77749 2.53078e-19 0)
(4.77163 2.54897e-19 0)
(4.76571 2.56517e-19 0)
(4.75973 2.5796e-19 0)
(4.7537 2.5924e-19 0)
(4.74761 2.60373e-19 0)
(4.74146 2.61373e-19 0)
(4.73526 2.62263e-19 0)
(4.729 2.6299e-19 0)
(4.72268 2.6357e-19 0)
(4.71631 2.64011e-19 0)
(4.70989 2.64318e-19 0)
(4.7034 2.64561e-19 0)
(4.69686 2.64675e-19 0)
(4.69026 2.64666e-19 0)
(4.68361 2.64539e-19 0)
(4.6769 2.64299e-19 0)
(4.67013 2.6395e-19 0)
(4.6633 2.63497e-19 0)
(4.65642 2.62943e-19 0)
(4.64948 2.6229e-19 0)
(4.64248 2.61543e-19 0)
(4.63542 2.60702e-19 0)
(4.62831 2.59771e-19 0)
(4.62114 2.58751e-19 0)
(4.61391 2.57645e-19 0)
(4.60662 2.56454e-19 0)
(4.59927 2.5518e-19 0)
(4.59186 2.53826e-19 0)
(4.5844 2.52392e-19 0)
(4.57687 2.50882e-19 0)
(4.56928 2.49297e-19 0)
(4.56163 2.47638e-19 0)
(4.55392 2.45908e-19 0)
(4.54615 2.44109e-19 0)
(4.53832 2.42243e-19 0)
(4.53043 2.40311e-19 0)
(4.52247 2.38317e-19 0)
(4.51445 2.36261e-19 0)
(4.50637 2.34147e-19 0)
(4.49822 2.31976e-19 0)
(4.49 2.29752e-19 0)
(4.48172 2.27475e-19 0)
(4.47338 2.25148e-19 0)
(4.46497 2.22774e-19 0)
(4.45649 2.20355e-19 0)
(4.44794 2.17894e-19 0)
(4.43933 2.15392e-19 0)
(4.43064 2.12852e-19 0)
(4.42189 2.10276e-19 0)
(4.41306 2.07668e-19 0)
(4.40416 2.05028e-19 0)
(4.39519 2.02361e-19 0)
(4.38615 1.99667e-19 0)
(4.37703 1.96949e-19 0)
(4.36784 1.9421e-19 0)
(4.35857 1.91451e-19 0)
(4.34922 1.88675e-19 0)
(4.3398 1.85885e-19 0)
(4.33029 1.83081e-19 0)
(4.32071 1.80268e-19 0)
(4.31104 1.77445e-19 0)
(4.30129 1.74616e-19 0)
(4.29146 1.71782e-19 0)
(4.28154 1.68946e-19 0)
(4.27153 1.66109e-19 0)
(4.26143 1.63273e-19 0)
(4.25125 1.60439e-19 0)
(4.24097 1.5761e-19 0)
(4.23061 1.54787e-19 0)
(4.22014 1.51972e-19 0)
(4.20958 1.49165e-19 0)
(4.19893 1.46369e-19 0)
(4.18817 1.43586e-19 0)
(4.17731 1.40815e-19 0)
(4.16635 1.38059e-19 0)
(4.15528 1.35319e-19 0)
(4.14411 1.32596e-19 0)
(4.13282 1.29892e-19 0)
(4.12143 1.27206e-19 0)
(4.10992 1.24541e-19 0)
(4.09829 1.21896e-19 0)
(4.08655 1.19274e-19 0)
(4.07468 1.16675e-19 0)
(4.06269 1.141e-19 0)
(4.05057 1.11549e-19 0)
(4.03833 1.09023e-19 0)
(4.02595 1.06524e-19 0)
(4.01343 1.0405e-19 0)
(4.00078 1.01604e-19 0)
(3.98798 9.91862e-20 0)
(3.97504 9.67961e-20 0)
(3.96194 9.44348e-20 0)
(3.9487 9.21025e-20 0)
(3.93529 8.97998e-20 0)
(3.92173 8.7527e-20 0)
(3.908 8.52845e-20 0)
(3.8941 8.30726e-20 0)
(3.88002 8.08915e-20 0)
(3.86577 7.87415e-20 0)
(3.85133 7.66229e-20 0)
(3.8367 7.45358e-20 0)
(3.82187 7.24805e-20 0)
(3.80685 7.04571e-20 0)
(3.79161 6.84657e-20 0)
(3.77617 6.65065e-20 0)
(3.7605 6.45796e-20 0)
(3.7446 6.2685e-20 0)
(3.72847 6.08229e-20 0)
(3.7121 5.89932e-20 0)
(3.69547 5.7196e-20 0)
(3.67859 5.54314e-20 0)
(3.66144 5.36993e-20 0)
(3.64401 5.19997e-20 0)
(3.62629 5.03327e-20 0)
(3.60828 4.86981e-20 0)
(3.58995 4.7096e-20 0)
(3.5713 4.55264e-20 0)
(3.55232 4.39891e-20 0)
(3.533 4.24841e-20 0)
(3.51331 4.10113e-20 0)
(3.49324 3.95707e-20 0)
(3.47278 3.81621e-20 0)
(3.45191 3.67856e-20 0)
(3.43062 3.54409e-20 0)
(3.40888 3.4128e-20 0)
(3.38667 3.28467e-20 0)
(3.36396 3.15971e-20 0)
(3.34075 3.03789e-20 0)
(3.31699 2.9192e-20 0)
(3.29267 2.80364e-20 0)
(3.26774 2.69118e-20 0)
(3.24219 2.58181e-20 0)
(3.21597 2.47553e-20 0)
(3.18904 2.3723e-20 0)
(3.16136 2.27213e-20 0)
(3.1329 2.17499e-20 0)
(3.10358 2.08086e-20 0)
(3.07337 1.98973e-20 0)
(3.04219 1.90156e-20 0)
(3.00998 1.81635e-20 0)
(2.97667 1.73405e-20 0)
(2.94216 1.65465e-20 0)
(2.90637 1.5781e-20 0)
(2.86918 1.50437e-20 0)
(2.83048 1.43342e-20 0)
(2.79012 1.36518e-20 0)
(2.74795 1.29961e-20 0)
(2.70378 1.23663e-20 0)
(2.6574 1.17615e-20 0)
(2.60855 1.11809e-20 0)
(2.55694 1.06231e-20 0)
(2.50221 1.00868e-20 0)
(2.44393 9.57024e-21 0)
(2.38157 9.07138e-21 0)
(2.31447 8.5876e-21 0)
(2.24177 8.11565e-21 0)
(2.16239 7.65138e-21 0)
(2.07488 7.18939e-21 0)
(1.97723 6.7224e-21 0)
(1.8666 6.24028e-21 0)
(1.73874 5.72824e-21 0)
(1.58691 5.16341e-21 0)
(1.39967 4.50773e-21 0)
(1.15607 3.6927e-21 0)
(0.818038 2.59593e-21 0)
(0.351201 1.10821e-21 0)
)
;

boundaryField
{
    top_wall
    {
        type            noSlip;
    }
    inlet
    {
        type            cyclic;
    }
    bot_wall
    {
        type            noSlip;
    }
    outlet
    {
        type            cyclic;
    }
    frontAndBack
    {
        type            empty;
    }
}


// ************************************************************************* //
