/*--------------------------------*- C++ -*----------------------------------*\
| =========                 |                                                 |
| \\      /  F ield         | OpenFOAM: The Open Source CFD Toolbox           |
|  \\    /   O peration     | Version:  2312                                  |
|   \\  /    A nd           | Website:  www.openfoam.com                      |
|    \\/     M anipulation  |                                                 |
\*---------------------------------------------------------------------------*/
FoamFile
{
    version     2.0;
    format      ascii;
    arch        "LSB;label=32;scalar=64";
    class       volScalarField;
    location    "63.115";
    object      k;
}
// * * * * * * * * * * * * * * * * * * * * * * * * * * * * * * * * * * * * * //

dimensions      [0 2 -2 0 0 0 0];

internalField   nonuniform List<scalar> 
4000
(
0.00119974
0.00157487
0.0020821
0.00261286
0.00310559
0.00353864
0.00391157
0.00423146
0.00450678
0.00474519
0.00495309
0.00513567
0.00529706
0.0054406
0.00556897
0.00568436
0.00578854
0.00588299
0.00596894
0.00604741
0.00611927
0.00618527
0.00624603
0.00630209
0.00635393
0.00640195
0.00644651
0.00648792
0.00652646
0.00656237
0.00659588
0.00662716
0.00665641
0.00668376
0.00670937
0.00673335
0.00675583
0.0067769
0.00679666
0.00681519
0.00683258
0.00684889
0.00686419
0.00687855
0.006892
0.00690462
0.00691644
0.00692751
0.00693786
0.00694755
0.00695659
0.00696503
0.0069729
0.00698021
0.00698701
0.0069933
0.00699913
0.0070045
0.00700944
0.00701397
0.00701811
0.00702187
0.00702526
0.00702831
0.00703103
0.00703343
0.00703552
0.00703732
0.00703883
0.00704008
0.00704106
0.00704178
0.00704227
0.00704252
0.00704254
0.00704235
0.00704194
0.00704133
0.00704052
0.00703953
0.00703834
0.00703699
0.00703545
0.00703375
0.00703189
0.00702987
0.0070277
0.00702538
0.00702292
0.00702032
0.00701758
0.00701472
0.00701172
0.0070086
0.00700536
0.00700201
0.00699854
0.00699495
0.00699126
0.00698747
0.00698357
0.00697957
0.00697548
0.00697129
0.00696701
0.00696263
0.00695817
0.00695363
0.006949
0.00694428
0.00693949
0.00693462
0.00692968
0.00692466
0.00691957
0.0069144
0.00690917
0.00690387
0.0068985
0.00689307
0.00688757
0.00688202
0.0068764
0.00687072
0.00686498
0.00685919
0.00685334
0.00684744
0.00684148
0.00683547
0.00682941
0.0068233
0.00681715
0.00681094
0.00680468
0.00679838
0.00679204
0.00678565
0.00677921
0.00677274
0.00676622
0.00675966
0.00675306
0.00674642
0.00673975
0.00673303
0.00672628
0.00671949
0.00671267
0.00670581
0.00669892
0.00669199
0.00668503
0.00667804
0.00667102
0.00666396
0.00665688
0.00664976
0.00664262
0.00663544
0.00662824
0.00662101
0.00661376
0.00660648
0.00659917
0.00659183
0.00658447
0.00657709
0.00656968
0.00656225
0.0065548
0.00654732
0.00653982
0.0065323
0.00652476
0.0065172
0.00650962
0.00650201
0.00649439
0.00648675
0.00647909
0.00647141
0.00646371
0.006456
0.00644827
0.00644052
0.00643275
0.00642497
0.00641718
0.00640936
0.00640154
0.0063937
0.00638584
0.00637797
0.00637009
0.00636219
0.00635428
0.00634636
0.00633843
0.00633048
0.00632253
0.00631456
0.00630658
0.00629859
0.00629059
0.00628258
0.00627456
0.00626653
0.00625849
0.00625044
0.00624239
0.00623432
0.00622625
0.00621817
0.00621008
0.00620199
0.00619388
0.00618578
0.00617766
0.00616954
0.00616142
0.00615328
0.00614515
0.006137
0.00612886
0.00612071
0.00611255
0.00610439
0.00609623
0.00608806
0.00607989
0.00607172
0.00606354
0.00605536
0.00604718
0.006039
0.00603081
0.00602263
0.00601444
0.00600625
0.00599806
0.00598987
0.00598168
0.00597349
0.0059653
0.00595711
0.00594892
0.00594073
0.00593254
0.00592435
0.00591617
0.00590798
0.0058998
0.00589162
0.00588344
0.00587526
0.00586709
0.00585892
0.00585075
0.00584259
0.00583443
0.00582627
0.00581812
0.00580997
0.00580182
0.00579368
0.00578554
0.00577741
0.00576929
0.00576116
0.00575305
0.00574494
0.00573683
0.00572873
0.00572064
0.00571256
0.00570448
0.0056964
0.00568834
0.00568028
0.00567223
0.00566418
0.00565615
0.00564812
0.0056401
0.00563208
0.00562408
0.00561608
0.0056081
0.00560012
0.00559215
0.00558419
0.00557624
0.0055683
0.00556036
0.00555244
0.00554453
0.00553663
0.00552874
0.00552086
0.00551299
0.00550513
0.00549728
0.00548944
0.00548162
0.0054738
0.005466
0.00545821
0.00545043
0.00544266
0.0054349
0.00542716
0.00541943
0.00541171
0.00540401
0.00539632
0.00538864
0.00538097
0.00537332
0.00536568
0.00535806
0.00535044
0.00534285
0.00533526
0.00532769
0.00532014
0.0053126
0.00530507
0.00529756
0.00529006
0.00528258
0.00527512
0.00526766
0.00526023
0.00525281
0.0052454
0.00523801
0.00523064
0.00522328
0.00521594
0.00520862
0.00520131
0.00519401
0.00518674
0.00517948
0.00517224
0.00516501
0.0051578
0.00515061
0.00514344
0.00513628
0.00512914
0.00512202
0.00511491
0.00510782
0.00510076
0.0050937
0.00508667
0.00507966
0.00507266
0.00506568
0.00505872
0.00505178
0.00504486
0.00503795
0.00503107
0.0050242
0.00501735
0.00501052
0.00500371
0.00499692
0.00499015
0.0049834
0.00497666
0.00496995
0.00496326
0.00495658
0.00494993
0.00494329
0.00493668
0.00493009
0.00492351
0.00491696
0.00491042
0.00490391
0.00489741
0.00489094
0.00488449
0.00487805
0.00487164
0.00486525
0.00485888
0.00485253
0.0048462
0.00483989
0.0048336
0.00482734
0.00482109
0.00481487
0.00480866
0.00480248
0.00479632
0.00479018
0.00478406
0.00477796
0.00477189
0.00476583
0.0047598
0.00475379
0.0047478
0.00474183
0.00473588
0.00472996
0.00472405
0.00471817
0.00471231
0.00470647
0.00470066
0.00469486
0.00468909
0.00468334
0.00467761
0.0046719
0.00466621
0.00466055
0.00465491
0.00464929
0.00464369
0.00463812
0.00463256
0.00462703
0.00462152
0.00461603
0.00461057
0.00460513
0.00459971
0.00459431
0.00458893
0.00458358
0.00457824
0.00457293
0.00456765
0.00456238
0.00455714
0.00455192
0.00454672
0.00454154
0.00453638
0.00453125
0.00452614
0.00452105
0.00451599
0.00451094
0.00450592
0.00450092
0.00449594
0.00449099
0.00448605
0.00448114
0.00447625
0.00447139
0.00446654
0.00446172
0.00445692
0.00445214
0.00444738
0.00444265
0.00443793
0.00443324
0.00442857
0.00442392
0.0044193
0.00441469
0.00441011
0.00440555
0.00440101
0.0043965
0.004392
0.00438753
0.00438308
0.00437865
0.00437424
0.00436985
0.00436549
0.00436114
0.00435682
0.00435252
0.00434824
0.00434398
0.00433974
0.00433553
0.00433133
0.00432716
0.00432301
0.00431888
0.00431477
0.00431068
0.00430661
0.00430256
0.00429854
0.00429453
0.00429055
0.00428658
0.00428264
0.00427872
0.00427482
0.00427094
0.00426708
0.00426324
0.00425942
0.00425562
0.00425184
0.00424808
0.00424434
0.00424063
0.00423693
0.00423325
0.00422959
0.00422596
0.00422234
0.00421874
0.00421516
0.0042116
0.00420807
0.00420455
0.00420105
0.00419757
0.00419411
0.00419067
0.00418725
0.00418385
0.00418046
0.0041771
0.00417376
0.00417043
0.00416713
0.00416384
0.00416057
0.00415732
0.00415409
0.00415088
0.00414769
0.00414451
0.00414136
0.00413822
0.0041351
0.004132
0.00412892
0.00412586
0.00412281
0.00411978
0.00411678
0.00411378
0.00411081
0.00410786
0.00410492
0.004102
0.0040991
0.00409621
0.00409335
0.0040905
0.00408766
0.00408485
0.00408205
0.00407927
0.00407651
0.00407376
0.00407103
0.00406832
0.00406563
0.00406295
0.00406029
0.00405764
0.00405502
0.0040524
0.00404981
0.00404723
0.00404467
0.00404212
0.00403959
0.00403708
0.00403458
0.0040321
0.00402964
0.00402719
0.00402476
0.00402234
0.00401994
0.00401755
0.00401518
0.00401282
0.00401048
0.00400816
0.00400585
0.00400356
0.00400128
0.00399901
0.00399677
0.00399453
0.00399231
0.00399011
0.00398792
0.00398575
0.00398359
0.00398144
0.00397931
0.00397719
0.00397509
0.003973
0.00397093
0.00396887
0.00396683
0.0039648
0.00396278
0.00396078
0.00395879
0.00395681
0.00395485
0.0039529
0.00395097
0.00394905
0.00394714
0.00394524
0.00394336
0.00394149
0.00393964
0.0039378
0.00393597
0.00393415
0.00393235
0.00393056
0.00392879
0.00392702
0.00392527
0.00392353
0.0039218
0.00392009
0.00391839
0.0039167
0.00391502
0.00391336
0.00391171
0.00391007
0.00390844
0.00390682
0.00390522
0.00390362
0.00390204
0.00390047
0.00389892
0.00389737
0.00389584
0.00389431
0.0038928
0.0038913
0.00388981
0.00388834
0.00388687
0.00388541
0.00388397
0.00388254
0.00388111
0.0038797
0.0038783
0.00387691
0.00387553
0.00387416
0.00387281
0.00387146
0.00387012
0.0038688
0.00386748
0.00386617
0.00386488
0.00386359
0.00386232
0.00386105
0.0038598
0.00385855
0.00385731
0.00385609
0.00385487
0.00385367
0.00385247
0.00385128
0.00385011
0.00384894
0.00384778
0.00384663
0.00384549
0.00384436
0.00384324
0.00384213
0.00384102
0.00383993
0.00383884
0.00383777
0.0038367
0.00383564
0.00383459
0.00383355
0.00383252
0.0038315
0.00383048
0.00382948
0.00382848
0.00382749
0.00382651
0.00382554
0.00382457
0.00382362
0.00382267
0.00382173
0.0038208
0.00381988
0.00381896
0.00381805
0.00381715
0.00381626
0.00381538
0.0038145
0.00381363
0.00381277
0.00381192
0.00381107
0.00381024
0.0038094
0.00380858
0.00380777
0.00380696
0.00380616
0.00380536
0.00380458
0.0038038
0.00380302
0.00380226
0.0038015
0.00380075
0.0038
0.00379927
0.00379853
0.00379781
0.00379709
0.00379638
0.00379568
0.00379498
0.00379429
0.00379361
0.00379293
0.00379226
0.00379159
0.00379093
0.00379028
0.00378964
0.003789
0.00378836
0.00378774
0.00378712
0.0037865
0.00378589
0.00378529
0.00378469
0.0037841
0.00378352
0.00378294
0.00378236
0.0037818
0.00378123
0.00378068
0.00378013
0.00377958
0.00377904
0.00377851
0.00377798
0.00377746
0.00377694
0.00377643
0.00377592
0.00377542
0.00377492
0.00377443
0.00377395
0.00377347
0.00377299
0.00377252
0.00377205
0.00377159
0.00377114
0.00377069
0.00377024
0.0037698
0.00376937
0.00376894
0.00376851
0.00376809
0.00376767
0.00376726
0.00376685
0.00376645
0.00376605
0.00376566
0.00376527
0.00376489
0.00376451
0.00376413
0.00376376
0.0037634
0.00376303
0.00376268
0.00376232
0.00376197
0.00376163
0.00376129
0.00376095
0.00376062
0.00376029
0.00375996
0.00375964
0.00375933
0.00375901
0.0037587
0.0037584
0.0037581
0.0037578
0.00375751
0.00375722
0.00375693
0.00375665
0.00375637
0.0037561
0.00375583
0.00375556
0.0037553
0.00375504
0.00375478
0.00375453
0.00375428
0.00375403
0.00375379
0.00375355
0.00375332
0.00375309
0.00375286
0.00375263
0.00375241
0.00375219
0.00375197
0.00375176
0.00375155
0.00375135
0.00375114
0.00375094
0.00375075
0.00375055
0.00375036
0.00375017
0.00374999
0.00374981
0.00374963
0.00374945
0.00374928
0.00374911
0.00374894
0.00374878
0.00374862
0.00374846
0.0037483
0.00374815
0.003748
0.00374785
0.0037477
0.00374756
0.00374742
0.00374728
0.00374715
0.00374702
0.00374689
0.00374676
0.00374664
0.00374651
0.00374639
0.00374628
0.00374616
0.00374605
0.00374594
0.00374583
0.00374573
0.00374562
0.00374552
0.00374542
0.00374533
0.00374523
0.00374514
0.00374505
0.00374496
0.00374488
0.0037448
0.00374472
0.00374464
0.00374456
0.00374448
0.00374441
0.00374434
0.00374427
0.00374421
0.00374414
0.00374408
0.00374402
0.00374396
0.0037439
0.00374385
0.00374379
0.00374374
0.00374369
0.00374365
0.0037436
0.00374356
0.00374351
0.00374347
0.00374344
0.0037434
0.00374336
0.00374333
0.0037433
0.00374327
0.00374324
0.00374321
0.00374319
0.00374316
0.00374314
0.00374312
0.0037431
0.00374308
0.00374307
0.00374305
0.00374304
0.00374303
0.00374302
0.00374301
0.003743
0.003743
0.00374299
0.00374299
0.00374299
0.00374299
0.00374299
0.00374299
0.00374299
0.003743
0.00374301
0.00374301
0.00374302
0.00374303
0.00374304
0.00374306
0.00374307
0.00374309
0.0037431
0.00374312
0.00374314
0.00374316
0.00374318
0.0037432
0.00374322
0.00374325
0.00374327
0.0037433
0.00374333
0.00374336
0.00374339
0.00374342
0.00374345
0.00374348
0.00374351
0.00374355
0.00374358
0.00374362
0.00374366
0.0037437
0.00374374
0.00374378
0.00374382
0.00374386
0.0037439
0.00374395
0.00374399
0.00374404
0.00374408
0.00374413
0.00374418
0.00374423
0.00374428
0.00374433
0.00374438
0.00374443
0.00374448
0.00374454
0.00374459
0.00374465
0.0037447
0.00374476
0.00374482
0.00374488
0.00374493
0.00374499
0.00374505
0.00374511
0.00374518
0.00374524
0.0037453
0.00374536
0.00374543
0.00374549
0.00374556
0.00374562
0.00374569
0.00374575
0.00374582
0.00374589
0.00374596
0.00374603
0.0037461
0.00374617
0.00374624
0.00374631
0.00374638
0.00374645
0.00374653
0.0037466
0.00374667
0.00374675
0.00374682
0.0037469
0.00374697
0.00374705
0.00374712
0.0037472
0.00374728
0.00374735
0.00374743
0.00374751
0.00374759
0.00374767
0.00374775
0.00374783
0.00374791
0.00374799
0.00374807
0.00374815
0.00374823
0.00374831
0.00374839
0.00374848
0.00374856
0.00374864
0.00374873
0.00374881
0.00374889
0.00374898
0.00374906
0.00374915
0.00374923
0.00374932
0.0037494
0.00374949
0.00374958
0.00374966
0.00374975
0.00374983
0.00374992
0.00375001
0.0037501
0.00375018
0.00375027
0.00375036
0.00375045
0.00375053
0.00375062
0.00375071
0.0037508
0.00375089
0.00375098
0.00375107
0.00375116
0.00375125
0.00375134
0.00375143
0.00375152
0.00375161
0.0037517
0.00375179
0.00375188
0.00375197
0.00375206
0.00375215
0.00375224
0.00375233
0.00375242
0.00375251
0.0037526
0.00375269
0.00375278
0.00375287
0.00375297
0.00375306
0.00375315
0.00375324
0.00375333
0.00375342
0.00375351
0.00375361
0.0037537
0.00375379
0.00375388
0.00375397
0.00375406
0.00375416
0.00375425
0.00375434
0.00375443
0.00375452
0.00375461
0.0037547
0.0037548
0.00375489
0.00375498
0.00375507
0.00375516
0.00375525
0.00375534
0.00375544
0.00375553
0.00375562
0.00375571
0.0037558
0.00375589
0.00375598
0.00375607
0.00375616
0.00375626
0.00375635
0.00375644
0.00375653
0.00375662
0.00375671
0.0037568
0.00375689
0.00375698
0.00375707
0.00375716
0.00375725
0.00375734
0.00375743
0.00375752
0.00375761
0.0037577
0.00375779
0.00375788
0.00375797
0.00375805
0.00375814
0.00375823
0.00375832
0.00375841
0.0037585
0.00375859
0.00375867
0.00375876
0.00375885
0.00375894
0.00375903
0.00375911
0.0037592
0.00375929
0.00375937
0.00375946
0.00375955
0.00375963
0.00375972
0.00375981
0.00375989
0.00375998
0.00376007
0.00376015
0.00376024
0.00376032
0.00376041
0.00376049
0.00376058
0.00376066
0.00376075
0.00376083
0.00376091
0.003761
0.00376108
0.00376117
0.00376125
0.00376133
0.00376142
0.0037615
0.00376158
0.00376166
0.00376175
0.00376183
0.00376191
0.00376199
0.00376207
0.00376216
0.00376224
0.00376232
0.0037624
0.00376248
0.00376256
0.00376264
0.00376272
0.0037628
0.00376288
0.00376296
0.00376304
0.00376312
0.0037632
0.00376327
0.00376335
0.00376343
0.00376351
0.00376359
0.00376366
0.00376374
0.00376382
0.0037639
0.00376397
0.00376405
0.00376413
0.0037642
0.00376428
0.00376435
0.00376443
0.0037645
0.00376458
0.00376465
0.00376473
0.0037648
0.00376488
0.00376495
0.00376502
0.0037651
0.00376517
0.00376524
0.00376532
0.00376539
0.00376546
0.00376553
0.00376561
0.00376568
0.00376575
0.00376582
0.00376589
0.00376596
0.00376603
0.0037661
0.00376617
0.00376624
0.00376631
0.00376638
0.00376645
0.00376652
0.00376659
0.00376666
0.00376673
0.00376679
0.00376686
0.00376693
0.003767
0.00376706
0.00376713
0.0037672
0.00376726
0.00376733
0.0037674
0.00376746
0.00376753
0.00376759
0.00376766
0.00376772
0.00376779
0.00376785
0.00376792
0.00376798
0.00376804
0.00376811
0.00376817
0.00376823
0.0037683
0.00376836
0.00376842
0.00376848
0.00376855
0.00376861
0.00376867
0.00376873
0.00376879
0.00376885
0.00376891
0.00376897
0.00376903
0.00376909
0.00376915
0.00376921
0.00376927
0.00376933
0.00376939
0.00376945
0.00376951
0.00376956
0.00376962
0.00376968
0.00376974
0.00376979
0.00376985
0.00376991
0.00376996
0.00377002
0.00377008
0.00377013
0.00377019
0.00377024
0.0037703
0.00377035
0.00377041
0.00377046
0.00377052
0.00377057
0.00377062
0.00377068
0.00377073
0.00377078
0.00377084
0.00377089
0.00377094
0.00377099
0.00377104
0.0037711
0.00377115
0.0037712
0.00377125
0.0037713
0.00377135
0.0037714
0.00377145
0.0037715
0.00377155
0.0037716
0.00377165
0.0037717
0.00377175
0.0037718
0.00377185
0.00377189
0.00377194
0.00377199
0.00377204
0.00377209
0.00377213
0.00377218
0.00377223
0.00377227
0.00377232
0.00377237
0.00377241
0.00377246
0.0037725
0.00377255
0.00377259
0.00377264
0.00377268
0.00377273
0.00377277
0.00377282
0.00377286
0.0037729
0.00377295
0.00377299
0.00377303
0.00377308
0.00377312
0.00377316
0.0037732
0.00377325
0.00377329
0.00377333
0.00377337
0.00377341
0.00377345
0.0037735
0.00377354
0.00377358
0.00377362
0.00377366
0.0037737
0.00377374
0.00377378
0.00377382
0.00377386
0.00377389
0.00377393
0.00377397
0.00377401
0.00377405
0.00377409
0.00377412
0.00377416
0.0037742
0.00377424
0.00377427
0.00377431
0.00377435
0.00377438
0.00377442
0.00377446
0.00377449
0.00377453
0.00377456
0.0037746
0.00377464
0.00377467
0.00377471
0.00377474
0.00377478
0.00377481
0.00377484
0.00377488
0.00377491
0.00377495
0.00377498
0.00377501
0.00377505
0.00377508
0.00377511
0.00377514
0.00377518
0.00377521
0.00377524
0.00377527
0.00377531
0.00377534
0.00377537
0.0037754
0.00377543
0.00377546
0.00377549
0.00377552
0.00377556
0.00377559
0.00377562
0.00377565
0.00377568
0.00377571
0.00377574
0.00377576
0.00377579
0.00377582
0.00377585
0.00377588
0.00377591
0.00377594
0.00377597
0.00377599
0.00377602
0.00377605
0.00377608
0.00377611
0.00377613
0.00377616
0.00377619
0.00377622
0.00377624
0.00377627
0.0037763
0.00377632
0.00377635
0.00377637
0.0037764
0.00377643
0.00377645
0.00377648
0.0037765
0.00377653
0.00377655
0.00377658
0.0037766
0.00377663
0.00377665
0.00377668
0.0037767
0.00377673
0.00377675
0.00377677
0.0037768
0.00377682
0.00377684
0.00377687
0.00377689
0.00377691
0.00377694
0.00377696
0.00377698
0.00377701
0.00377703
0.00377705
0.00377707
0.00377709
0.00377712
0.00377714
0.00377716
0.00377718
0.0037772
0.00377722
0.00377725
0.00377727
0.00377729
0.00377731
0.00377733
0.00377735
0.00377737
0.00377739
0.00377741
0.00377743
0.00377745
0.00377747
0.00377749
0.00377751
0.00377753
0.00377755
0.00377757
0.00377759
0.00377761
0.00377763
0.00377764
0.00377766
0.00377768
0.0037777
0.00377772
0.00377774
0.00377776
0.00377777
0.00377779
0.00377781
0.00377783
0.00377784
0.00377786
0.00377788
0.0037779
0.00377791
0.00377793
0.00377795
0.00377797
0.00377798
0.003778
0.00377802
0.00377803
0.00377805
0.00377806
0.00377808
0.0037781
0.00377811
0.00377813
0.00377814
0.00377816
0.00377818
0.00377819
0.00377821
0.00377822
0.00377824
0.00377825
0.00377827
0.00377828
0.0037783
0.00377831
0.00377833
0.00377834
0.00377836
0.00377837
0.00377838
0.0037784
0.00377841
0.00377843
0.00377844
0.00377846
0.00377847
0.00377848
0.0037785
0.00377851
0.00377852
0.00377854
0.00377855
0.00377856
0.00377858
0.00377859
0.0037786
0.00377861
0.00377863
0.00377864
0.00377865
0.00377867
0.00377868
0.00377869
0.0037787
0.00377871
0.00377873
0.00377874
0.00377875
0.00377876
0.00377877
0.00377879
0.0037788
0.00377881
0.00377882
0.00377883
0.00377884
0.00377885
0.00377887
0.00377888
0.00377889
0.0037789
0.00377891
0.00377892
0.00377893
0.00377894
0.00377895
0.00377896
0.00377897
0.00377898
0.003779
0.00377901
0.00377902
0.00377903
0.00377904
0.00377905
0.00377906
0.00377907
0.00377908
0.00377909
0.00377909
0.0037791
0.00377911
0.00377912
0.00377913
0.00377914
0.00377915
0.00377916
0.00377917
0.00377918
0.00377919
0.0037792
0.00377921
0.00377922
0.00377922
0.00377923
0.00377924
0.00377925
0.00377926
0.00377927
0.00377928
0.00377928
0.00377929
0.0037793
0.00377931
0.00377932
0.00377932
0.00377933
0.00377934
0.00377935
0.00377936
0.00377936
0.00377937
0.00377938
0.00377939
0.0037794
0.0037794
0.00377941
0.00377942
0.00377943
0.00377943
0.00377944
0.00377945
0.00377945
0.00377946
0.00377947
0.00377948
0.00377948
0.00377949
0.0037795
0.0037795
0.00377951
0.00377952
0.00377952
0.00377953
0.00377954
0.00377954
0.00377955
0.00377956
0.00377956
0.00377957
0.00377958
0.00377958
0.00377959
0.00377959
0.0037796
0.00377961
0.00377961
0.00377962
0.00377963
0.00377963
0.00377964
0.00377964
0.00377965
0.00377965
0.00377966
0.00377967
0.00377967
0.00377968
0.00377968
0.00377969
0.00377969
0.0037797
0.0037797
0.00377971
0.00377972
0.00377972
0.00377973
0.00377973
0.00377974
0.00377974
0.00377975
0.00377975
0.00377976
0.00377976
0.00377977
0.00377977
0.00377978
0.00377978
0.00377979
0.00377979
0.0037798
0.0037798
0.0037798
0.00377981
0.00377981
0.00377982
0.00377982
0.00377983
0.00377983
0.00377984
0.00377984
0.00377985
0.00377985
0.00377985
0.00377986
0.00377986
0.00377987
0.00377987
0.00377987
0.00377988
0.00377988
0.00377989
0.00377989
0.00377989
0.0037799
0.0037799
0.00377991
0.00377991
0.00377991
0.00377992
0.00377992
0.00377993
0.00377993
0.00377993
0.00377994
0.00377994
0.00377994
0.00377995
0.00377995
0.00377995
0.00377996
0.00377996
0.00377996
0.00377997
0.00377997
0.00377997
0.00377998
0.00377998
0.00377998
0.00377999
0.00377999
0.00377999
0.00378
0.00378
0.00378
0.00378001
0.00378001
0.00378001
0.00378002
0.00378002
0.00378002
0.00378002
0.00378003
0.00378003
0.00378003
0.00378004
0.00378004
0.00378004
0.00378004
0.00378005
0.00378005
0.00378005
0.00378006
0.00378006
0.00378006
0.00378006
0.00378007
0.00378007
0.00378007
0.00378007
0.00378008
0.00378008
0.00378008
0.00378008
0.00378009
0.00378009
0.00378009
0.00378009
0.00378009
0.0037801
0.0037801
0.0037801
0.0037801
0.00378011
0.00378011
0.00378011
0.00378011
0.00378011
0.00378012
0.00378012
0.00378012
0.00378012
0.00378013
0.00378013
0.00378013
0.00378013
0.00378013
0.00378014
0.00378014
0.00378014
0.00378014
0.00378014
0.00378014
0.00378015
0.00378015
0.00378015
0.00378015
0.00378015
0.00378016
0.00378016
0.00378016
0.00378016
0.00378016
0.00378016
0.00378017
0.00378017
0.00378017
0.00378017
0.00378017
0.00378017
0.00378018
0.00378018
0.00378018
0.00378018
0.00378018
0.00378018
0.00378018
0.00378019
0.00378019
0.00378019
0.00378019
0.00378019
0.00378019
0.00378019
0.0037802
0.0037802
0.0037802
0.0037802
0.0037802
0.0037802
0.0037802
0.0037802
0.00378021
0.00378021
0.00378021
0.00378021
0.00378021
0.00378021
0.00378021
0.00378021
0.00378022
0.00378022
0.00378022
0.00378022
0.00378022
0.00378022
0.00378022
0.00378022
0.00378022
0.00378023
0.00378023
0.00378023
0.00378023
0.00378023
0.00378023
0.00378023
0.00378023
0.00378023
0.00378023
0.00378023
0.00378024
0.00378024
0.00378024
0.00378024
0.00378024
0.00378024
0.00378024
0.00378024
0.00378024
0.00378024
0.00378024
0.00378024
0.00378024
0.00378025
0.00378025
0.00378025
0.00378025
0.00378025
0.00378025
0.00378025
0.00378025
0.00378025
0.00378025
0.00378025
0.00378025
0.00378025
0.00378025
0.00378025
0.00378025
0.00378025
0.00378026
0.00378026
0.00378026
0.00378026
0.00378026
0.00378026
0.00378026
0.00378026
0.00378026
0.00378026
0.00378026
0.00378026
0.00378026
0.00378026
0.00378026
0.00378026
0.00378026
0.00378026
0.00378026
0.00378026
0.00378026
0.00378026
0.00378026
0.00378026
0.00378026
0.00378026
0.00378026
0.00378026
0.00378027
0.00378027
0.00378027
0.00378027
0.00378027
0.00378027
0.00378027
0.00378027
0.00378027
0.00378027
0.00378027
0.00378027
0.00378027
0.00378027
0.00378027
0.00378027
0.00378027
0.00378027
0.00378027
0.00378027
0.00378027
0.00378027
0.00378027
0.00378027
0.00378027
0.00378027
0.00378027
0.00378027
0.00378027
0.00378027
0.00378027
0.00378027
0.00378027
0.00378027
0.00378027
0.00378027
0.00378027
0.00378027
0.00378026
0.00378026
0.00378026
0.00378026
0.00378026
0.00378026
0.00378026
0.00378026
0.00378026
0.00378026
0.00378026
0.00378026
0.00378026
0.00378026
0.00378026
0.00378026
0.00378026
0.00378026
0.00378026
0.00378026
0.00378026
0.00378026
0.00378026
0.00378026
0.00378026
0.00378026
0.00378026
0.00378026
0.00378025
0.00378025
0.00378025
0.00378025
0.00378025
0.00378025
0.00378025
0.00378025
0.00378025
0.00378025
0.00378025
0.00378025
0.00378025
0.00378025
0.00378025
0.00378025
0.00378025
0.00378024
0.00378024
0.00378024
0.00378024
0.00378024
0.00378024
0.00378024
0.00378024
0.00378024
0.00378024
0.00378024
0.00378024
0.00378024
0.00378023
0.00378023
0.00378023
0.00378023
0.00378023
0.00378023
0.00378023
0.00378023
0.00378023
0.00378023
0.00378022
0.00378022
0.00378022
0.00378022
0.00378022
0.00378022
0.00378022
0.00378022
0.00378022
0.00378022
0.00378021
0.00378021
0.00378021
0.00378021
0.00378021
0.00378021
0.00378021
0.00378021
0.0037802
0.0037802
0.0037802
0.0037802
0.0037802
0.0037802
0.0037802
0.0037802
0.00378019
0.00378019
0.00378019
0.00378019
0.00378019
0.00378019
0.00378019
0.00378018
0.00378018
0.00378018
0.00378018
0.00378018
0.00378018
0.00378018
0.00378017
0.00378017
0.00378017
0.00378017
0.00378017
0.00378017
0.00378016
0.00378016
0.00378016
0.00378016
0.00378016
0.00378016
0.00378015
0.00378015
0.00378015
0.00378015
0.00378015
0.00378014
0.00378014
0.00378014
0.00378014
0.00378014
0.00378014
0.00378013
0.00378013
0.00378013
0.00378013
0.00378013
0.00378012
0.00378012
0.00378012
0.00378012
0.00378011
0.00378011
0.00378011
0.00378011
0.00378011
0.0037801
0.0037801
0.0037801
0.0037801
0.00378009
0.00378009
0.00378009
0.00378009
0.00378009
0.00378008
0.00378008
0.00378008
0.00378008
0.00378007
0.00378007
0.00378007
0.00378007
0.00378006
0.00378006
0.00378006
0.00378005
0.00378005
0.00378005
0.00378005
0.00378004
0.00378004
0.00378004
0.00378004
0.00378003
0.00378003
0.00378003
0.00378002
0.00378002
0.00378002
0.00378002
0.00378001
0.00378001
0.00378001
0.00378
0.00378
0.00378
0.00377999
0.00377999
0.00377999
0.00377998
0.00377998
0.00377998
0.00377997
0.00377997
0.00377997
0.00377996
0.00377996
0.00377996
0.00377995
0.00377995
0.00377995
0.00377994
0.00377994
0.00377994
0.00377993
0.00377993
0.00377993
0.00377992
0.00377992
0.00377991
0.00377991
0.00377991
0.0037799
0.0037799
0.00377989
0.00377989
0.00377989
0.00377988
0.00377988
0.00377987
0.00377987
0.00377987
0.00377986
0.00377986
0.00377985
0.00377985
0.00377984
0.00377984
0.00377984
0.00377983
0.00377983
0.00377982
0.00377982
0.00377981
0.00377981
0.0037798
0.0037798
0.00377979
0.00377979
0.00377979
0.00377978
0.00377978
0.00377977
0.00377977
0.00377976
0.00377976
0.00377975
0.00377975
0.00377974
0.00377974
0.00377973
0.00377973
0.00377972
0.00377971
0.00377971
0.0037797
0.0037797
0.00377969
0.00377969
0.00377968
0.00377968
0.00377967
0.00377967
0.00377966
0.00377965
0.00377965
0.00377964
0.00377964
0.00377963
0.00377962
0.00377962
0.00377961
0.00377961
0.0037796
0.00377959
0.00377959
0.00377958
0.00377958
0.00377957
0.00377956
0.00377956
0.00377955
0.00377954
0.00377954
0.00377953
0.00377952
0.00377952
0.00377951
0.0037795
0.0037795
0.00377949
0.00377948
0.00377948
0.00377947
0.00377946
0.00377945
0.00377945
0.00377944
0.00377943
0.00377943
0.00377942
0.00377941
0.0037794
0.0037794
0.00377939
0.00377938
0.00377937
0.00377936
0.00377936
0.00377935
0.00377934
0.00377933
0.00377932
0.00377932
0.00377931
0.0037793
0.00377929
0.00377928
0.00377927
0.00377927
0.00377926
0.00377925
0.00377924
0.00377923
0.00377922
0.00377921
0.00377921
0.0037792
0.00377919
0.00377918
0.00377917
0.00377916
0.00377915
0.00377914
0.00377913
0.00377912
0.00377911
0.0037791
0.00377909
0.00377908
0.00377907
0.00377907
0.00377906
0.00377905
0.00377904
0.00377903
0.00377901
0.003779
0.00377899
0.00377898
0.00377897
0.00377896
0.00377895
0.00377894
0.00377893
0.00377892
0.00377891
0.0037789
0.00377889
0.00377888
0.00377887
0.00377885
0.00377884
0.00377883
0.00377882
0.00377881
0.0037788
0.00377879
0.00377877
0.00377876
0.00377875
0.00377874
0.00377873
0.00377871
0.0037787
0.00377869
0.00377868
0.00377866
0.00377865
0.00377864
0.00377863
0.00377861
0.0037786
0.00377859
0.00377858
0.00377856
0.00377855
0.00377854
0.00377852
0.00377851
0.0037785
0.00377848
0.00377847
0.00377845
0.00377844
0.00377843
0.00377841
0.0037784
0.00377838
0.00377837
0.00377836
0.00377834
0.00377833
0.00377831
0.0037783
0.00377828
0.00377827
0.00377825
0.00377824
0.00377822
0.00377821
0.00377819
0.00377818
0.00377816
0.00377814
0.00377813
0.00377811
0.0037781
0.00377808
0.00377806
0.00377805
0.00377803
0.00377801
0.003778
0.00377798
0.00377796
0.00377795
0.00377793
0.00377791
0.0037779
0.00377788
0.00377786
0.00377784
0.00377783
0.00377781
0.00377779
0.00377777
0.00377775
0.00377774
0.00377772
0.0037777
0.00377768
0.00377766
0.00377764
0.00377763
0.00377761
0.00377759
0.00377757
0.00377755
0.00377753
0.00377751
0.00377749
0.00377747
0.00377745
0.00377743
0.00377741
0.00377739
0.00377737
0.00377735
0.00377733
0.00377731
0.00377729
0.00377727
0.00377724
0.00377722
0.0037772
0.00377718
0.00377716
0.00377714
0.00377712
0.00377709
0.00377707
0.00377705
0.00377703
0.003777
0.00377698
0.00377696
0.00377694
0.00377691
0.00377689
0.00377687
0.00377684
0.00377682
0.0037768
0.00377677
0.00377675
0.00377672
0.0037767
0.00377668
0.00377665
0.00377663
0.0037766
0.00377658
0.00377655
0.00377653
0.0037765
0.00377648
0.00377645
0.00377643
0.0037764
0.00377637
0.00377635
0.00377632
0.00377629
0.00377627
0.00377624
0.00377621
0.00377619
0.00377616
0.00377613
0.00377611
0.00377608
0.00377605
0.00377602
0.00377599
0.00377597
0.00377594
0.00377591
0.00377588
0.00377585
0.00377582
0.00377579
0.00377576
0.00377573
0.0037757
0.00377568
0.00377565
0.00377562
0.00377558
0.00377555
0.00377552
0.00377549
0.00377546
0.00377543
0.0037754
0.00377537
0.00377534
0.00377531
0.00377527
0.00377524
0.00377521
0.00377518
0.00377514
0.00377511
0.00377508
0.00377505
0.00377501
0.00377498
0.00377494
0.00377491
0.00377488
0.00377484
0.00377481
0.00377477
0.00377474
0.0037747
0.00377467
0.00377463
0.0037746
0.00377456
0.00377453
0.00377449
0.00377446
0.00377442
0.00377438
0.00377435
0.00377431
0.00377427
0.00377424
0.0037742
0.00377416
0.00377412
0.00377409
0.00377405
0.00377401
0.00377397
0.00377393
0.00377389
0.00377385
0.00377382
0.00377378
0.00377374
0.0037737
0.00377366
0.00377362
0.00377358
0.00377354
0.00377349
0.00377345
0.00377341
0.00377337
0.00377333
0.00377329
0.00377325
0.0037732
0.00377316
0.00377312
0.00377308
0.00377303
0.00377299
0.00377295
0.0037729
0.00377286
0.00377282
0.00377277
0.00377273
0.00377268
0.00377264
0.00377259
0.00377255
0.0037725
0.00377246
0.00377241
0.00377237
0.00377232
0.00377227
0.00377223
0.00377218
0.00377213
0.00377209
0.00377204
0.00377199
0.00377194
0.00377189
0.00377185
0.0037718
0.00377175
0.0037717
0.00377165
0.0037716
0.00377155
0.0037715
0.00377145
0.0037714
0.00377135
0.0037713
0.00377125
0.0037712
0.00377115
0.0037711
0.00377104
0.00377099
0.00377094
0.00377089
0.00377083
0.00377078
0.00377073
0.00377068
0.00377062
0.00377057
0.00377051
0.00377046
0.00377041
0.00377035