/*--------------------------------*- C++ -*----------------------------------*\
| =========                 |                                                 |
| \\      /  F ield         | OpenFOAM: The Open Source CFD Toolbox           |
|  \\    /   O peration     | Version:  2312                                  |
|   \\  /    A nd           | Website:  www.openfoam.com                      |
|    \\/     M anipulation  |                                                 |
\*---------------------------------------------------------------------------*/
FoamFile
{
    version     2.0;
    format      ascii;
    arch        "LSB;label=32;scalar=64";
    class       volScalarField;
    location    "63.115";
    object      nut;
}
// * * * * * * * * * * * * * * * * * * * * * * * * * * * * * * * * * * * * * //

dimensions      [0 2 -1 0 0 0 0];

internalField   nonuniform List<scalar> 
4000
(
1.94455e-06
4.78917e-06
1.03408e-05
1.85614e-05
2.8698e-05
3.99569e-05
5.17897e-05
6.38728e-05
7.60263e-05
8.81522e-05
0.000100198
0.000112136
0.000123953
0.000135645
0.000147211
0.000158653
0.000169974
0.000181178
0.000192269
0.000203251
0.00021413
0.000224908
0.00023559
0.000246179
0.000256679
0.000267092
0.000277422
0.000287671
0.000297841
0.000307936
0.000317957
0.000327906
0.000337785
0.000347596
0.00035734
0.00036702
0.000376637
0.000386191
0.000395685
0.00040512
0.000414496
0.000423815
0.000433077
0.000442285
0.000451439
0.000460539
0.000469586
0.000478582
0.000487528
0.000496423
0.000505268
0.000514065
0.000522814
0.000531516
0.00054017
0.000548779
0.000557341
0.000565859
0.000574332
0.000582761
0.000591146
0.000599488
0.000607787
0.000616044
0.000624259
0.000632433
0.000640566
0.000648658
0.000656711
0.000664723
0.000672696
0.000680629
0.000688524
0.000696381
0.0007042
0.00071198
0.000719724
0.00072743
0.0007351
0.000742733
0.000750329
0.00075789
0.000765415
0.000772905
0.00078036
0.00078778
0.000795166
0.000802517
0.000809835
0.000817118
0.000824368
0.000831585
0.000838769
0.00084592
0.000853038
0.000860125
0.000867179
0.000874201
0.000881192
0.000888151
0.000895079
0.000901977
0.000908843
0.000915679
0.000922485
0.000929261
0.000936006
0.000942723
0.000949409
0.000956067
0.000962695
0.000969294
0.000975865
0.000982407
0.000988921
0.000995407
0.00100187
0.0010083
0.0010147
0.00102107
0.00102742
0.00103374
0.00104004
0.00104631
0.00105255
0.00105876
0.00106495
0.00107111
0.00107725
0.00108336
0.00108945
0.00109551
0.00110155
0.00110756
0.00111355
0.00111951
0.00112545
0.00113136
0.00113725
0.00114312
0.00114896
0.00115478
0.00116057
0.00116635
0.0011721
0.00117782
0.00118353
0.00118921
0.00119487
0.0012005
0.00120612
0.00121171
0.00121728
0.00122283
0.00122836
0.00123387
0.00123935
0.00124482
0.00125026
0.00125568
0.00126108
0.00126647
0.00127183
0.00127717
0.00128249
0.0012878
0.00129308
0.00129834
0.00130359
0.00130881
0.00131402
0.0013192
0.00132437
0.00132952
0.00133465
0.00133977
0.00134486
0.00134994
0.001355
0.00136004
0.00136506
0.00137007
0.00137506
0.00138003
0.00138498
0.00138992
0.00139485
0.00139975
0.00140464
0.00140951
0.00141437
0.00141921
0.00142403
0.00142884
0.00143364
0.00143841
0.00144318
0.00144792
0.00145266
0.00145737
0.00146208
0.00146676
0.00147144
0.0014761
0.00148074
0.00148538
0.00148999
0.0014946
0.00149919
0.00150376
0.00150833
0.00151288
0.00151741
0.00152194
0.00152645
0.00153095
0.00153543
0.00153991
0.00154437
0.00154882
0.00155325
0.00155768
0.00156209
0.0015665
0.00157089
0.00157526
0.00157963
0.00158399
0.00158833
0.00159267
0.00159699
0.00160131
0.00160561
0.0016099
0.00161419
0.00161846
0.00162272
0.00162697
0.00163122
0.00163545
0.00163967
0.00164389
0.00164809
0.00165229
0.00165648
0.00166066
0.00166483
0.00166899
0.00167314
0.00167728
0.00168142
0.00168555
0.00168967
0.00169378
0.00169789
0.00170198
0.00170607
0.00171016
0.00171423
0.0017183
0.00172236
0.00172642
0.00173046
0.0017345
0.00173854
0.00174257
0.00174659
0.0017506
0.00175461
0.00175862
0.00176262
0.00176661
0.00177059
0.00177458
0.00177855
0.00178252
0.00178649
0.00179045
0.0017944
0.00179835
0.0018023
0.00180624
0.00181018
0.00181411
0.00181804
0.00182196
0.00182588
0.0018298
0.00183371
0.00183762
0.00184153
0.00184543
0.00184933
0.00185322
0.00185712
0.00186101
0.00186489
0.00186878
0.00187266
0.00187653
0.00188041
0.00188428
0.00188815
0.00189202
0.00189589
0.00189975
0.00190362
0.00190748
0.00191134
0.00191519
0.00191905
0.00192291
0.00192676
0.00193061
0.00193446
0.00193831
0.00194216
0.00194601
0.00194986
0.0019537
0.00195755
0.00196139
0.00196524
0.00196908
0.00197293
0.00197677
0.00198062
0.00198446
0.00198831
0.00199215
0.001996
0.00199984
0.00200369
0.00200754
0.00201138
0.00201523
0.00201908
0.00202293
0.00202678
0.00203063
0.00203449
0.00203834
0.00204219
0.00204605
0.00204991
0.00205377
0.00205763
0.00206149
0.00206536
0.00206922
0.00207309
0.00207696
0.00208084
0.00208471
0.00208859
0.00209246
0.00209635
0.00210023
0.00210411
0.002108
0.00211189
0.00211579
0.00211968
0.00212358
0.00212748
0.00213139
0.00213529
0.0021392
0.00214312
0.00214703
0.00215095
0.00215487
0.0021588
0.00216273
0.00216666
0.0021706
0.00217454
0.00217848
0.00218242
0.00218637
0.00219033
0.00219428
0.00219824
0.00220221
0.00220618
0.00221015
0.00221413
0.0022181
0.00222209
0.00222608
0.00223007
0.00223406
0.00223806
0.00224207
0.00224608
0.00225009
0.0022541
0.00225813
0.00226215
0.00226618
0.00227021
0.00227425
0.00227829
0.00228234
0.00228639
0.00229045
0.00229451
0.00229857
0.00230264
0.00230672
0.00231079
0.00231488
0.00231896
0.00232306
0.00232715
0.00233125
0.00233536
0.00233947
0.00234359
0.00234771
0.00235183
0.00235596
0.00236009
0.00236423
0.00236838
0.00237252
0.00237668
0.00238083
0.002385
0.00238916
0.00239333
0.00239751
0.00240169
0.00240588
0.00241007
0.00241426
0.00241846
0.00242266
0.00242687
0.00243109
0.00243531
0.00243953
0.00244376
0.00244799
0.00245222
0.00245646
0.00246071
0.00246496
0.00246921
0.00247347
0.00247774
0.002482
0.00248628
0.00249055
0.00249483
0.00249912
0.00250341
0.0025077
0.002512
0.0025163
0.00252061
0.00252492
0.00252924
0.00253356
0.00253788
0.00254221
0.00254654
0.00255087
0.00255521
0.00255955
0.0025639
0.00256825
0.00257261
0.00257696
0.00258133
0.00258569
0.00259006
0.00259443
0.00259881
0.00260319
0.00260757
0.00261196
0.00261635
0.00262074
0.00262514
0.00262954
0.00263394
0.00263835
0.00264276
0.00264717
0.00265158
0.002656
0.00266042
0.00266484
0.00266927
0.0026737
0.00267813
0.00268256
0.002687
0.00269144
0.00269588
0.00270032
0.00270477
0.00270922
0.00271367
0.00271812
0.00272257
0.00272703
0.00273149
0.00273595
0.00274041
0.00274487
0.00274933
0.0027538
0.00275827
0.00276274
0.00276721
0.00277168
0.00277615
0.00278063
0.0027851
0.00278958
0.00279406
0.00279854
0.00280302
0.0028075
0.00281198
0.00281646
0.00282094
0.00282542
0.0028299
0.00283439
0.00283887
0.00284335
0.00284784
0.00285232
0.0028568
0.00286129
0.00286577
0.00287025
0.00287473
0.00287922
0.0028837
0.00288818
0.00289266
0.00289714
0.00290162
0.00290609
0.00291057
0.00291505
0.00291952
0.002924
0.00292847
0.00293294
0.00293741
0.00294188
0.00294634
0.00295081
0.00295527
0.00295973
0.00296419
0.00296865
0.00297311
0.00297756
0.00298201
0.00298646
0.00299091
0.00299535
0.00299979
0.00300423
0.00300867
0.00301311
0.00301754
0.00302197
0.00302639
0.00303081
0.00303523
0.00303965
0.00304406
0.00304847
0.00305288
0.00305728
0.00306168
0.00306608
0.00307047
0.00307486
0.00307924
0.00308362
0.003088
0.00309237
0.00309674
0.00310111
0.00310547
0.00310982
0.00311417
0.00311852
0.00312286
0.0031272
0.00313153
0.00313586
0.00314018
0.0031445
0.00314882
0.00315312
0.00315743
0.00316173
0.00316602
0.00317031
0.00317459
0.00317887
0.00318314
0.0031874
0.00319166
0.00319592
0.00320016
0.00320441
0.00320864
0.00321287
0.0032171
0.00322132
0.00322553
0.00322974
0.00323394
0.00323813
0.00324232
0.0032465
0.00325067
0.00325484
0.003259
0.00326315
0.0032673
0.00327144
0.00327557
0.0032797
0.00328382
0.00328793
0.00329204
0.00329614
0.00330023
0.00330431
0.00330839
0.00331245
0.00331652
0.00332057
0.00332462
0.00332865
0.00333269
0.00333671
0.00334072
0.00334473
0.00334873
0.00335272
0.00335671
0.00336068
0.00336465
0.00336861
0.00337256
0.0033765
0.00338044
0.00338437
0.00338828
0.00339219
0.0033961
0.00339999
0.00340387
0.00340775
0.00341162
0.00341547
0.00341932
0.00342317
0.003427
0.00343082
0.00343464
0.00343844
0.00344224
0.00344603
0.00344981
0.00345358
0.00345734
0.00346109
0.00346483
0.00346856
0.00347229
0.003476
0.00347971
0.00348341
0.00348709
0.00349077
0.00349444
0.0034981
0.00350175
0.00350539
0.00350902
0.00351264
0.00351625
0.00351985
0.00352345
0.00352703
0.0035306
0.00353416
0.00353772
0.00354126
0.00354479
0.00354832
0.00355183
0.00355534
0.00355883
0.00356232
0.00356579
0.00356926
0.00357271
0.00357616
0.00357959
0.00358302
0.00358643
0.00358984
0.00359323
0.00359662
0.00359999
0.00360336
0.00360671
0.00361006
0.00361339
0.00361672
0.00362003
0.00362333
0.00362663
0.00362991
0.00363319
0.00363645
0.0036397
0.00364294
0.00364618
0.0036494
0.00365261
0.00365581
0.003659
0.00366219
0.00366536
0.00366852
0.00367167
0.00367481
0.00367794
0.00368106
0.00368416
0.00368726
0.00369035
0.00369343
0.0036965
0.00369956
0.0037026
0.00370564
0.00370867
0.00371168
0.00371469
0.00371768
0.00372067
0.00372364
0.00372661
0.00372956
0.0037325
0.00373544
0.00373836
0.00374127
0.00374418
0.00374707
0.00374995
0.00375282
0.00375568
0.00375853
0.00376137
0.0037642
0.00376702
0.00376983
0.00377263
0.00377542
0.0037782
0.00378097
0.00378373
0.00378648
0.00378921
0.00379194
0.00379466
0.00379737
0.00380006
0.00380275
0.00380543
0.00380809
0.00381075
0.0038134
0.00381603
0.00381866
0.00382128
0.00382388
0.00382648
0.00382906
0.00383164
0.0038342
0.00383676
0.00383931
0.00384184
0.00384437
0.00384688
0.00384939
0.00385188
0.00385437
0.00385685
0.00385931
0.00386177
0.00386422
0.00386665
0.00386908
0.0038715
0.0038739
0.0038763
0.00387869
0.00388107
0.00388344
0.00388579
0.00388814
0.00389048
0.00389281
0.00389513
0.00389744
0.00389974
0.00390203
0.00390432
0.00390659
0.00390885
0.0039111
0.00391335
0.00391558
0.00391781
0.00392002
0.00392223
0.00392442
0.00392661
0.00392879
0.00393096
0.00393312
0.00393527
0.00393741
0.00393954
0.00394166
0.00394378
0.00394588
0.00394797
0.00395006
0.00395214
0.00395421
0.00395626
0.00395831
0.00396035
0.00396239
0.00396441
0.00396642
0.00396843
0.00397042
0.00397241
0.00397439
0.00397636
0.00397832
0.00398027
0.00398222
0.00398415
0.00398608
0.00398799
0.0039899
0.0039918
0.00399369
0.00399558
0.00399745
0.00399932
0.00400118
0.00400302
0.00400486
0.0040067
0.00400852
0.00401034
0.00401214
0.00401394
0.00401573
0.00401751
0.00401929
0.00402105
0.00402281
0.00402456
0.0040263
0.00402804
0.00402976
0.00403148
0.00403319
0.00403489
0.00403658
0.00403827
0.00403994
0.00404161
0.00404328
0.00404493
0.00404658
0.00404821
0.00404984
0.00405147
0.00405308
0.00405469
0.00405629
0.00405788
0.00405946
0.00406104
0.00406261
0.00406417
0.00406573
0.00406727
0.00406881
0.00407034
0.00407187
0.00407338
0.00407489
0.0040764
0.00407789
0.00407938
0.00408086
0.00408233
0.0040838
0.00408526
0.00408671
0.00408815
0.00408959
0.00409102
0.00409245
0.00409386
0.00409527
0.00409668
0.00409807
0.00409946
0.00410084
0.00410222
0.00410358
0.00410495
0.0041063
0.00410765
0.00410899
0.00411032
0.00411165
0.00411297
0.00411429
0.0041156
0.0041169
0.00411819
0.00411948
0.00412076
0.00412204
0.00412331
0.00412457
0.00412583
0.00412708
0.00412832
0.00412956
0.00413079
0.00413201
0.00413323
0.00413445
0.00413565
0.00413685
0.00413805
0.00413923
0.00414041
0.00414159
0.00414276
0.00414392
0.00414508
0.00414623
0.00414738
0.00414852
0.00414965
0.00415078
0.0041519
0.00415302
0.00415413
0.00415524
0.00415634
0.00415743
0.00415852
0.0041596
0.00416068
0.00416175
0.00416281
0.00416387
0.00416493
0.00416597
0.00416702
0.00416806
0.00416909
0.00417012
0.00417114
0.00417215
0.00417316
0.00417417
0.00417517
0.00417616
0.00417715
0.00417814
0.00417912
0.00418009
0.00418106
0.00418202
0.00418298
0.00418394
0.00418489
0.00418583
0.00418677
0.0041877
0.00418863
0.00418955
0.00419047
0.00419138
0.00419229
0.0041932
0.0041941
0.00419499
0.00419588
0.00419676
0.00419764
0.00419852
0.00419939
0.00420026
0.00420112
0.00420197
0.00420282
0.00420367
0.00420451
0.00420535
0.00420619
0.00420701
0.00420784
0.00420866
0.00420947
0.00421029
0.00421109
0.00421189
0.00421269
0.00421349
0.00421428
0.00421506
0.00421584
0.00421662
0.00421739
0.00421816
0.00421892
0.00421968
0.00422044
0.00422119
0.00422193
0.00422268
0.00422341
0.00422415
0.00422488
0.00422561
0.00422633
0.00422705
0.00422776
0.00422847
0.00422918
0.00422988
0.00423058
0.00423128
0.00423197
0.00423265
0.00423334
0.00423402
0.00423469
0.00423537
0.00423603
0.0042367
0.00423736
0.00423802
0.00423867
0.00423932
0.00423997
0.00424061
0.00424125
0.00424188
0.00424251
0.00424314
0.00424377
0.00424439
0.00424501
0.00424562
0.00424623
0.00424684
0.00424744
0.00424804
0.00424864
0.00424923
0.00424982
0.00425041
0.00425099
0.00425157
0.00425215
0.00425273
0.0042533
0.00425386
0.00425443
0.00425499
0.00425555
0.0042561
0.00425665
0.0042572
0.00425774
0.00425829
0.00425882
0.00425936
0.00425989
0.00426042
0.00426095
0.00426147
0.00426199
0.00426251
0.00426303
0.00426354
0.00426405
0.00426455
0.00426505
0.00426555
0.00426605
0.00426654
0.00426704
0.00426752
0.00426801
0.00426849
0.00426897
0.00426945
0.00426992
0.0042704
0.00427086
0.00427133
0.00427179
0.00427226
0.00427271
0.00427317
0.00427362
0.00427407
0.00427452
0.00427496
0.00427541
0.00427585
0.00427628
0.00427672
0.00427715
0.00427758
0.00427801
0.00427843
0.00427885
0.00427927
0.00427969
0.0042801
0.00428052
0.00428093
0.00428133
0.00428174
0.00428214
0.00428254
0.00428294
0.00428333
0.00428373
0.00428412
0.00428451
0.00428489
0.00428528
0.00428566
0.00428604
0.00428641
0.00428679
0.00428716
0.00428753
0.0042879
0.00428827
0.00428863
0.00428899
0.00428935
0.00428971
0.00429006
0.00429042
0.00429077
0.00429112
0.00429146
0.00429181
0.00429215
0.00429249
0.00429283
0.00429317
0.0042935
0.00429383
0.00429416
0.00429449
0.00429482
0.00429514
0.00429547
0.00429579
0.0042961
0.00429642
0.00429674
0.00429705
0.00429736
0.00429767
0.00429798
0.00429828
0.00429859
0.00429889
0.00429919
0.00429949
0.00429978
0.00430008
0.00430037
0.00430066
0.00430095
0.00430124
0.00430152
0.00430181
0.00430209
0.00430237
0.00430265
0.00430293
0.0043032
0.00430347
0.00430375
0.00430402
0.00430429
0.00430455
0.00430482
0.00430508
0.00430534
0.0043056
0.00430586
0.00430612
0.00430638
0.00430663
0.00430688
0.00430713
0.00430738
0.00430763
0.00430788
0.00430812
0.00430837
0.00430861
0.00430885
0.00430909
0.00430933
0.00430956
0.0043098
0.00431003
0.00431026
0.00431049
0.00431072
0.00431095
0.00431117
0.0043114
0.00431162
0.00431184
0.00431206
0.00431228
0.0043125
0.00431272
0.00431293
0.00431314
0.00431336
0.00431357
0.00431378
0.00431399
0.00431419
0.0043144
0.0043146
0.00431481
0.00431501
0.00431521
0.00431541
0.00431561
0.0043158
0.004316
0.00431619
0.00431639
0.00431658
0.00431677
0.00431696
0.00431715
0.00431733
0.00431752
0.0043177
0.00431789
0.00431807
0.00431825
0.00431843
0.00431861
0.00431879
0.00431896
0.00431914
0.00431931
0.00431949
0.00431966
0.00431983
0.00432
0.00432017
0.00432034
0.00432051
0.00432067
0.00432084
0.004321
0.00432116
0.00432132
0.00432148
0.00432164
0.0043218
0.00432196
0.00432212
0.00432227
0.00432243
0.00432258
0.00432273
0.00432288
0.00432303
0.00432318
0.00432333
0.00432348
0.00432363
0.00432377
0.00432392
0.00432406
0.0043242
0.00432435
0.00432449
0.00432463
0.00432477
0.0043249
0.00432504
0.00432518
0.00432531
0.00432545
0.00432558
0.00432572
0.00432585
0.00432598
0.00432611
0.00432624
0.00432637
0.0043265
0.00432662
0.00432675
0.00432688
0.004327
0.00432712
0.00432725
0.00432737
0.00432749
0.00432761
0.00432773
0.00432785
0.00432797
0.00432809
0.0043282
0.00432832
0.00432843
0.00432855
0.00432866
0.00432878
0.00432889
0.004329
0.00432911
0.00432922
0.00432933
0.00432944
0.00432955
0.00432965
0.00432976
0.00432986
0.00432997
0.00433007
0.00433018
0.00433028
0.00433038
0.00433048
0.00433059
0.00433069
0.00433079
0.00433088
0.00433098
0.00433108
0.00433118
0.00433127
0.00433137
0.00433146
0.00433156
0.00433165
0.00433175
0.00433184
0.00433193
0.00433202
0.00433211
0.0043322
0.00433229
0.00433238
0.00433247
0.00433256
0.00433264
0.00433273
0.00433282
0.0043329
0.00433299
0.00433307
0.00433315
0.00433324
0.00433332
0.0043334
0.00433348
0.00433356
0.00433364
0.00433372
0.0043338
0.00433388
0.00433396
0.00433404
0.00433411
0.00433419
0.00433427
0.00433434
0.00433442
0.00433449
0.00433457
0.00433464
0.00433471
0.00433478
0.00433486
0.00433493
0.004335
0.00433507
0.00433514
0.00433521
0.00433528
0.00433535
0.00433541
0.00433548
0.00433555
0.00433562
0.00433568
0.00433575
0.00433581
0.00433588
0.00433594
0.00433601
0.00433607
0.00433613
0.0043362
0.00433626
0.00433632
0.00433638
0.00433644
0.0043365
0.00433656
0.00433662
0.00433668
0.00433674
0.0043368
0.00433686
0.00433692
0.00433697
0.00433703
0.00433709
0.00433714
0.0043372
0.00433726
0.00433731
0.00433737
0.00433742
0.00433747
0.00433753
0.00433758
0.00433763
0.00433768
0.00433774
0.00433779
0.00433784
0.00433789
0.00433794
0.00433799
0.00433804
0.00433809
0.00433814
0.00433819
0.00433824
0.00433829
0.00433833
0.00433838
0.00433843
0.00433847
0.00433852
0.00433857
0.00433861
0.00433866
0.0043387
0.00433875
0.00433879
0.00433884
0.00433888
0.00433892
0.00433897
0.00433901
0.00433905
0.0043391
0.00433914
0.00433918
0.00433922
0.00433926
0.0043393
0.00433934
0.00433938
0.00433942
0.00433946
0.0043395
0.00433954
0.00433958
0.00433962
0.00433966
0.0043397
0.00433973
0.00433977
0.00433981
0.00433985
0.00433988
0.00433992
0.00433996
0.00433999
0.00434003
0.00434006
0.0043401
0.00434013
0.00434017
0.0043402
0.00434024
0.00434027
0.0043403
0.00434034
0.00434037
0.0043404
0.00434044
0.00434047
0.0043405
0.00434053
0.00434056
0.0043406
0.00434063
0.00434066
0.00434069
0.00434072
0.00434075
0.00434078
0.00434081
0.00434084
0.00434087
0.0043409
0.00434093
0.00434096
0.00434099
0.00434101
0.00434104
0.00434107
0.0043411
0.00434113
0.00434115
0.00434118
0.00434121
0.00434123
0.00434126
0.00434129
0.00434131
0.00434134
0.00434137
0.00434139
0.00434142
0.00434144
0.00434147
0.00434149
0.00434152
0.00434154
0.00434157
0.00434159
0.00434161
0.00434164
0.00434166
0.00434169
0.00434171
0.00434173
0.00434175
0.00434178
0.0043418
0.00434182
0.00434185
0.00434187
0.00434189
0.00434191
0.00434193
0.00434195
0.00434198
0.004342
0.00434202
0.00434204
0.00434206
0.00434208
0.0043421
0.00434212
0.00434214
0.00434216
0.00434218
0.0043422
0.00434222
0.00434224
0.00434226
0.00434228
0.0043423
0.00434231
0.00434233
0.00434235
0.00434237
0.00434239
0.00434241
0.00434242
0.00434244
0.00434246
0.00434248
0.00434249
0.00434251
0.00434253
0.00434255
0.00434256
0.00434258
0.0043426
0.00434261
0.00434263
0.00434265
0.00434266
0.00434268
0.00434269
0.00434271
0.00434273
0.00434274
0.00434276
0.00434277
0.00434279
0.0043428
0.00434282
0.00434283
0.00434285
0.00434286
0.00434288
0.00434289
0.0043429
0.00434292
0.00434293
0.00434295
0.00434296
0.00434297
0.00434299
0.004343
0.00434301
0.00434303
0.00434304
0.00434305
0.00434307
0.00434308
0.00434309
0.00434311
0.00434312
0.00434313
0.00434314
0.00434315
0.00434317
0.00434318
0.00434319
0.0043432
0.00434321
0.00434323
0.00434324
0.00434325
0.00434326
0.00434327
0.00434328
0.0043433
0.00434331
0.00434332
0.00434333
0.00434334
0.00434335
0.00434336
0.00434337
0.00434338
0.00434339
0.0043434
0.00434341
0.00434342
0.00434343
0.00434344
0.00434345
0.00434346
0.00434347
0.00434348
0.00434349
0.0043435
0.00434351
0.00434352
0.00434353
0.00434354
0.00434355
0.00434356
0.00434357
0.00434358
0.00434358
0.00434359
0.0043436
0.00434361
0.00434362
0.00434363
0.00434364
0.00434364
0.00434365
0.00434366
0.00434367
0.00434368
0.00434369
0.00434369
0.0043437
0.00434371
0.00434372
0.00434373
0.00434373
0.00434374
0.00434375
0.00434376
0.00434376
0.00434377
0.00434378
0.00434379
0.00434379
0.0043438
0.00434381
0.00434381
0.00434382
0.00434383
0.00434383
0.00434384
0.00434385
0.00434385
0.00434386
0.00434387
0.00434387
0.00434388
0.00434389
0.00434389
0.0043439
0.00434391
0.00434391
0.00434392
0.00434392
0.00434393
0.00434394
0.00434394
0.00434395
0.00434395
0.00434396
0.00434397
0.00434397
0.00434398
0.00434398
0.00434399
0.00434399
0.004344
0.00434401
0.00434401
0.00434402
0.00434402
0.00434403
0.00434403
0.00434404
0.00434404
0.00434405
0.00434405
0.00434406
0.00434406
0.00434407
0.00434407
0.00434408
0.00434408
0.00434409
0.00434409
0.0043441
0.0043441
0.0043441
0.00434411
0.00434411
0.00434412
0.00434412
0.00434413
0.00434413
0.00434414
0.00434414
0.00434414
0.00434415
0.00434415
0.00434416
0.00434416
0.00434417
0.00434417
0.00434417
0.00434418
0.00434418
0.00434418
0.00434419
0.00434419
0.0043442
0.0043442
0.0043442
0.00434421
0.00434421
0.00434421
0.00434422
0.00434422
0.00434423
0.00434423
0.00434423
0.00434424
0.00434424
0.00434424
0.00434425
0.00434425
0.00434425
0.00434426
0.00434426
0.00434426
0.00434426
0.00434427
0.00434427
0.00434427
0.00434428
0.00434428
0.00434428
0.00434429
0.00434429
0.00434429
0.00434429
0.0043443
0.0043443
0.0043443
0.00434431
0.00434431
0.00434431
0.00434431
0.00434432
0.00434432
0.00434432
0.00434432
0.00434433
0.00434433
0.00434433
0.00434433
0.00434434
0.00434434
0.00434434
0.00434434
0.00434435
0.00434435
0.00434435
0.00434435
0.00434436
0.00434436
0.00434436
0.00434436
0.00434436
0.00434437
0.00434437
0.00434437
0.00434437
0.00434437
0.00434438
0.00434438
0.00434438
0.00434438
0.00434438
0.00434439
0.00434439
0.00434439
0.00434439
0.00434439
0.0043444
0.0043444
0.0043444
0.0043444
0.0043444
0.0043444
0.00434441
0.00434441
0.00434441
0.00434441
0.00434441
0.00434441
0.00434442
0.00434442
0.00434442
0.00434442
0.00434442
0.00434442
0.00434443
0.00434443
0.00434443
0.00434443
0.00434443
0.00434443
0.00434443
0.00434443
0.00434444
0.00434444
0.00434444
0.00434444
0.00434444
0.00434444
0.00434444
0.00434444
0.00434445
0.00434445
0.00434445
0.00434445
0.00434445
0.00434445
0.00434445
0.00434445
0.00434445
0.00434446
0.00434446
0.00434446
0.00434446
0.00434446
0.00434446
0.00434446
0.00434446
0.00434446
0.00434446
0.00434446
0.00434447
0.00434447
0.00434447
0.00434447
0.00434447
0.00434447
0.00434447
0.00434447
0.00434447
0.00434447
0.00434447
0.00434447
0.00434447
0.00434448
0.00434448
0.00434448
0.00434448
0.00434448
0.00434448
0.00434448
0.00434448
0.00434448
0.00434448
0.00434448
0.00434448
0.00434448
0.00434448
0.00434448
0.00434448
0.00434448
0.00434448
0.00434448
0.00434448
0.00434449
0.00434449
0.00434449
0.00434449
0.00434449
0.00434449
0.00434449
0.00434449
0.00434449
0.00434449
0.00434449
0.00434449
0.00434449
0.00434449
0.00434449
0.00434449
0.00434449
0.00434449
0.00434449
0.00434449
0.00434449
0.00434449
0.00434449
0.00434449
0.00434449
0.00434449
0.00434449
0.00434449
0.00434449
0.00434449
0.00434449
0.00434449
0.00434449
0.00434449
0.00434449
0.00434449
0.00434449
0.00434449
0.00434449
0.00434449
0.00434449
0.00434449
0.00434449
0.00434449
0.00434449
0.00434449
0.00434449
0.00434449
0.00434448
0.00434448
0.00434448
0.00434448
0.00434448
0.00434448
0.00434448
0.00434448
0.00434448
0.00434448
0.00434448
0.00434448
0.00434448
0.00434448
0.00434448
0.00434448
0.00434448
0.00434448
0.00434448
0.00434448
0.00434448
0.00434447
0.00434447
0.00434447
0.00434447
0.00434447
0.00434447
0.00434447
0.00434447
0.00434447
0.00434447
0.00434447
0.00434447
0.00434447
0.00434446
0.00434446
0.00434446
0.00434446
0.00434446
0.00434446
0.00434446
0.00434446
0.00434446
0.00434446
0.00434446
0.00434445
0.00434445
0.00434445
0.00434445
0.00434445
0.00434445
0.00434445
0.00434445
0.00434445
0.00434444
0.00434444
0.00434444
0.00434444
0.00434444
0.00434444
0.00434444
0.00434444
0.00434443
0.00434443
0.00434443
0.00434443
0.00434443
0.00434443
0.00434443
0.00434442
0.00434442
0.00434442
0.00434442
0.00434442
0.00434442
0.00434442
0.00434441
0.00434441
0.00434441
0.00434441
0.00434441
0.00434441
0.0043444
0.0043444
0.0043444
0.0043444
0.0043444
0.00434439
0.00434439
0.00434439
0.00434439
0.00434439
0.00434439
0.00434438
0.00434438
0.00434438
0.00434438
0.00434438
0.00434437
0.00434437
0.00434437
0.00434437
0.00434437
0.00434436
0.00434436
0.00434436
0.00434436
0.00434435
0.00434435
0.00434435
0.00434435
0.00434435
0.00434434
0.00434434
0.00434434
0.00434434
0.00434433
0.00434433
0.00434433
0.00434433
0.00434432
0.00434432
0.00434432
0.00434432
0.00434431
0.00434431
0.00434431
0.0043443
0.0043443
0.0043443
0.0043443
0.00434429
0.00434429
0.00434429
0.00434428
0.00434428
0.00434428
0.00434428
0.00434427
0.00434427
0.00434427
0.00434426
0.00434426
0.00434426
0.00434425
0.00434425
0.00434425
0.00434424
0.00434424
0.00434424
0.00434423
0.00434423
0.00434423
0.00434422
0.00434422
0.00434422
0.00434421
0.00434421
0.0043442
0.0043442
0.0043442
0.00434419
0.00434419
0.00434419
0.00434418
0.00434418
0.00434417
0.00434417
0.00434417
0.00434416
0.00434416
0.00434415
0.00434415
0.00434415
0.00434414
0.00434414
0.00434413
0.00434413
0.00434412
0.00434412
0.00434412
0.00434411
0.00434411
0.0043441
0.0043441
0.00434409
0.00434409
0.00434408
0.00434408
0.00434407
0.00434407
0.00434406
0.00434406
0.00434405
0.00434405
0.00434404
0.00434404
0.00434403
0.00434403
0.00434402
0.00434402
0.00434401
0.00434401
0.004344
0.004344
0.00434399
0.00434398
0.00434398
0.00434397
0.00434397
0.00434396
0.00434396
0.00434395
0.00434394
0.00434394
0.00434393
0.00434393
0.00434392
0.00434391
0.00434391
0.0043439
0.0043439
0.00434389
0.00434388
0.00434388
0.00434387
0.00434386
0.00434386
0.00434385
0.00434384
0.00434384
0.00434383
0.00434382
0.00434382
0.00434381
0.0043438
0.00434379
0.00434379
0.00434378
0.00434377
0.00434377
0.00434376
0.00434375
0.00434374
0.00434373
0.00434373
0.00434372
0.00434371
0.0043437
0.0043437
0.00434369
0.00434368
0.00434367
0.00434366
0.00434366
0.00434365
0.00434364
0.00434363
0.00434362
0.00434361
0.0043436
0.0043436
0.00434359
0.00434358
0.00434357
0.00434356
0.00434355
0.00434354
0.00434353
0.00434352
0.00434351
0.0043435
0.00434349
0.00434348
0.00434347
0.00434346
0.00434346
0.00434345
0.00434344
0.00434343
0.00434341
0.0043434
0.00434339
0.00434338
0.00434337
0.00434336
0.00434335
0.00434334
0.00434333
0.00434332
0.00434331
0.0043433
0.00434329
0.00434327
0.00434326
0.00434325
0.00434324
0.00434323
0.00434322
0.00434321
0.00434319
0.00434318
0.00434317
0.00434316
0.00434314
0.00434313
0.00434312
0.00434311
0.00434309
0.00434308
0.00434307
0.00434306
0.00434304
0.00434303
0.00434302
0.004343
0.00434299
0.00434298
0.00434296
0.00434295
0.00434293
0.00434292
0.00434291
0.00434289
0.00434288
0.00434286
0.00434285
0.00434283
0.00434282
0.0043428
0.00434279
0.00434277
0.00434276
0.00434274
0.00434273
0.00434271
0.0043427
0.00434268
0.00434266
0.00434265
0.00434263
0.00434262
0.0043426
0.00434258
0.00434257
0.00434255
0.00434253
0.00434251
0.0043425
0.00434248
0.00434246
0.00434244
0.00434243
0.00434241
0.00434239
0.00434237
0.00434235
0.00434234
0.00434232
0.0043423
0.00434228
0.00434226
0.00434224
0.00434222
0.0043422
0.00434218
0.00434216
0.00434214
0.00434212
0.0043421
0.00434208
0.00434206
0.00434204
0.00434202
0.004342
0.00434198
0.00434196
0.00434194
0.00434191
0.00434189
0.00434187
0.00434185
0.00434183
0.0043418
0.00434178
0.00434176
0.00434173
0.00434171
0.00434169
0.00434166
0.00434164
0.00434162
0.00434159
0.00434157
0.00434154
0.00434152
0.00434149
0.00434147
0.00434144
0.00434142
0.00434139
0.00434137
0.00434134
0.00434132
0.00434129
0.00434126
0.00434124
0.00434121
0.00434118
0.00434116
0.00434113
0.0043411
0.00434107
0.00434104
0.00434102
0.00434099
0.00434096
0.00434093
0.0043409
0.00434087
0.00434084
0.00434081
0.00434078
0.00434075
0.00434072
0.00434069
0.00434066
0.00434063
0.0043406
0.00434057
0.00434053
0.0043405
0.00434047
0.00434044
0.00434041
0.00434037
0.00434034
0.00434031
0.00434027
0.00434024
0.0043402
0.00434017
0.00434014
0.0043401
0.00434006
0.00434003
0.00433999
0.00433996
0.00433992
0.00433989
0.00433985
0.00433981
0.00433977
0.00433974
0.0043397
0.00433966
0.00433962
0.00433958
0.00433955
0.00433951
0.00433947
0.00433943
0.00433939
0.00433935
0.00433931
0.00433927
0.00433922
0.00433918
0.00433914
0.0043391
0.00433906
0.00433901
0.00433897
0.00433893
0.00433888
0.00433884
0.0043388
0.00433875
0.00433871
0.00433866
0.00433862
0.00433857
0.00433852
0.00433848
0.00433843
0.00433838
0.00433834
0.00433829
0.00433824
0.00433819
0.00433814
0.00433809
0.00433804
0.00433799
0.00433794
0.00433789
0.00433784
0.00433779
0.00433774
0.00433769
0.00433764
0.00433758
0.00433753
0.00433748
0.00433742
0.00433737
0.00433731
0.00433726
0.0043372
0.00433715
0.00433709
0.00433703
0.00433698
0.00433692
0.00433686
0.0043368
0.00433675
0.00433669
0.00433663
0.00433657
0.00433651
0.00433645
0.00433639
0.00433632
0.00433626
0.0043362
0.00433614
0.00433607
0.00433601
0.00433595
0.00433588
0.00433582
0.00433575
0.00433569
0.00433562
0.00433555
0.00433549
0.00433542
0.00433535
0.00433528
0.00433521
0.00433514
0.00433507
0.004335
0.00433493
0.00433486
0.00433479
0.00433471
0.00433464
0.00433457
0.00433449
0.00433442
0.00433434
0.00433427
0.00433419
0.00433412
0.00433404
0.00433396
0.00433388
0.0043338
0.00433373
0.00433365
0.00433357
0.00433348
0.0043334
0.00433332
0.00433324
0.00433316
0.00433307
0.00433299
0.0043329
0.00433282
0.00433273
0.00433265
0.00433256
0.00433247
0.00433238
0.00433229
0.0043322
0.00433211
0.00433202
0.00433193
0.00433184
0.00433175
0.00433165
0.00433156
0.00433147
0.00433137
0.00433128
0.00433118
0.00433108
0.00433098
0.00433089
0.00433079
0.00433069
0.00433059
0.00433049
0.00433039
0.00433028
0.00433018
0.00433008
0.00432997
0.00432987
0.00432976
0.00432966
0.00432955
0.00432944
0.00432933
0.00432922
0.00432911
0.004329
0.00432889
0.00432878
0.00432866
0.00432855
0.00432844
0.00432832
0.00432821
0.00432809
0.00432797
0.00432785
0.00432773
0.00432761
0.00432749
0.00432737
0.00432725
0.00432713
0.004327
0.00432688
0.00432675
0.00432663
0.0043265
0.00432637
0.00432624
0.00432611