/*--------------------------------*- C++ -*----------------------------------*\
| =========                 |                                                 |
| \\      /  F ield         | OpenFOAM: The Open Source CFD Toolbox           |
|  \\    /   O peration     | Version:  2312                                  |
|   \\  /    A nd           | Website:  www.openfoam.com                      |
|    \\/     M anipulation  |                                                 |
\*---------------------------------------------------------------------------*/
FoamFile
{
    version     2.0;
    format      ascii;
    arch        "LSB;label=32;scalar=64";
    class       volVectorField;
    location    "63.115";
    object      U;
}
// * * * * * * * * * * * * * * * * * * * * * * * * * * * * * * * * * * * * * //

dimensions      [0 1 -1 0 0 0 0];

internalField   nonuniform List<vector> 
4000
(
(0.0125954 -2.49139e-19 0)
(0.0361806 5.1734e-19 0)
(0.0580306 1.69111e-19 0)
(0.0775323 1.69266e-19 0)
(0.0945911 1.77184e-19 0)
(0.109475 1.82143e-19 0)
(0.122558 1.86469e-19 0)
(0.134181 1.94006e-19 0)
(0.144623 2.05734e-19 0)
(0.154098 2.13719e-19 0)
(0.162773 2.16647e-19 0)
(0.170776 2.1134e-19 0)
(0.178208 2.00609e-19 0)
(0.185149 1.94997e-19 0)
(0.191664 1.93232e-19 0)
(0.197804 1.91951e-19 0)
(0.203615 1.93482e-19 0)
(0.209131 1.96004e-19 0)
(0.214384 1.9771e-19 0)
(0.219399 1.98759e-19 0)
(0.224198 1.9929e-19 0)
(0.228802 1.99451e-19 0)
(0.233225 1.99386e-19 0)
(0.237484 1.99195e-19 0)
(0.241591 1.98941e-19 0)
(0.245556 1.98665e-19 0)
(0.249392 1.98389e-19 0)
(0.253106 1.98125e-19 0)
(0.256706 1.97877e-19 0)
(0.2602 1.97646e-19 0)
(0.263595 1.97428e-19 0)
(0.266897 1.97221e-19 0)
(0.27011 1.97022e-19 0)
(0.27324 1.96828e-19 0)
(0.276292 1.96638e-19 0)
(0.27927 1.96448e-19 0)
(0.282177 1.96258e-19 0)
(0.285018 1.96066e-19 0)
(0.287794 1.95872e-19 0)
(0.290511 1.95676e-19 0)
(0.293169 1.95478e-19 0)
(0.295773 1.95276e-19 0)
(0.298323 1.95072e-19 0)
(0.300824 1.94864e-19 0)
(0.303276 1.94654e-19 0)
(0.305682 1.9444e-19 0)
(0.308044 1.94222e-19 0)
(0.310363 1.94001e-19 0)
(0.312641 1.93776e-19 0)
(0.31488 1.93547e-19 0)
(0.31708 1.93314e-19 0)
(0.319245 1.93077e-19 0)
(0.321374 1.92835e-19 0)
(0.323469 1.92588e-19 0)
(0.325531 1.92336e-19 0)
(0.327562 1.92079e-19 0)
(0.329562 1.91816e-19 0)
(0.331532 1.91548e-19 0)
(0.333474 1.91273e-19 0)
(0.335387 1.90993e-19 0)
(0.337274 1.90707e-19 0)
(0.339135 1.90415e-19 0)
(0.340971 1.90117e-19 0)
(0.342782 1.89812e-19 0)
(0.344569 1.89501e-19 0)
(0.346333 1.89184e-19 0)
(0.348074 1.8886e-19 0)
(0.349793 1.88529e-19 0)
(0.351492 1.88193e-19 0)
(0.353169 1.87849e-19 0)
(0.354826 1.875e-19 0)
(0.356464 1.87144e-19 0)
(0.358082 1.86781e-19 0)
(0.359682 1.86412e-19 0)
(0.361264 1.86036e-19 0)
(0.362828 1.85654e-19 0)
(0.364374 1.85265e-19 0)
(0.365904 1.8487e-19 0)
(0.367417 1.84468e-19 0)
(0.368914 1.8406e-19 0)
(0.370396 1.83645e-19 0)
(0.371862 1.83224e-19 0)
(0.373313 1.82795e-19 0)
(0.374749 1.8236e-19 0)
(0.376171 1.81917e-19 0)
(0.377579 1.81467e-19 0)
(0.378973 1.81009e-19 0)
(0.380353 1.80543e-19 0)
(0.381721 1.80067e-19 0)
(0.383076 1.79583e-19 0)
(0.384417 1.79088e-19 0)
(0.385747 1.78582e-19 0)
(0.387064 1.78064e-19 0)
(0.38837 1.77531e-19 0)
(0.389664 1.76984e-19 0)
(0.390946 1.76419e-19 0)
(0.392217 1.75834e-19 0)
(0.393478 1.75227e-19 0)
(0.394727 1.74596e-19 0)
(0.395966 1.73936e-19 0)
(0.397194 1.73244e-19 0)
(0.398412 1.72517e-19 0)
(0.39962 1.7175e-19 0)
(0.400819 1.70938e-19 0)
(0.402007 1.70077e-19 0)
(0.403186 1.69162e-19 0)
(0.404356 1.68188e-19 0)
(0.405516 1.67151e-19 0)
(0.406668 1.66046e-19 0)
(0.40781 1.64869e-19 0)
(0.408944 1.63619e-19 0)
(0.410069 1.62293e-19 0)
(0.411186 1.60891e-19 0)
(0.412295 1.59411e-19 0)
(0.413395 1.57848e-19 0)
(0.414487 1.56255e-19 0)
(0.415571 1.54633e-19 0)
(0.416648 1.52929e-19 0)
(0.417717 1.5115e-19 0)
(0.418778 1.49302e-19 0)
(0.419832 1.47391e-19 0)
(0.420878 1.45419e-19 0)
(0.421917 1.4339e-19 0)
(0.422949 1.41303e-19 0)
(0.423974 1.3916e-19 0)
(0.424992 1.36963e-19 0)
(0.426003 1.34711e-19 0)
(0.427008 1.32402e-19 0)
(0.428006 1.30027e-19 0)
(0.428997 1.2757e-19 0)
(0.429982 1.25003e-19 0)
(0.43096 1.22284e-19 0)
(0.431932 1.19348e-19 0)
(0.432898 1.16104e-19 0)
(0.433858 1.12427e-19 0)
(0.434812 1.08152e-19 0)
(0.43576 1.0311e-19 0)
(0.436701 9.70058e-20 0)
(0.437638 8.9284e-20 0)
(0.438568 8.32322e-20 0)
(0.439493 1.04727e-19 0)
(0.440412 1.26189e-19 0)
(0.441325 1.20553e-19 0)
(0.442233 1.13661e-19 0)
(0.443136 1.08783e-19 0)
(0.444034 1.05308e-19 0)
(0.444926 1.02988e-19 0)
(0.445813 1.01594e-19 0)
(0.446694 1.01002e-19 0)
(0.447571 1.01083e-19 0)
(0.448443 1.01744e-19 0)
(0.44931 1.02921e-19 0)
(0.450171 1.04567e-19 0)
(0.451028 1.06652e-19 0)
(0.451881 1.09155e-19 0)
(0.452728 1.12063e-19 0)
(0.453571 1.15366e-19 0)
(0.454409 1.19058e-19 0)
(0.455242 1.23136e-19 0)
(0.456071 1.27601e-19 0)
(0.456896 1.32405e-19 0)
(0.457716 1.37548e-19 0)
(0.458532 1.43028e-19 0)
(0.459343 1.48838e-19 0)
(0.46015 1.54968e-19 0)
(0.460952 1.61454e-19 0)
(0.461751 1.68283e-19 0)
(0.462545 1.75444e-19 0)
(0.463335 1.82878e-19 0)
(0.464122 1.91012e-19 0)
(0.464904 1.93864e-19 0)
(0.465682 1.88862e-19 0)
(0.466456 1.82785e-19 0)
(0.467226 1.82442e-19 0)
(0.467992 1.86686e-19 0)
(0.468754 1.89425e-19 0)
(0.469513 1.90988e-19 0)
(0.470268 1.92904e-19 0)
(0.471019 1.95019e-19 0)
(0.471766 1.97367e-19 0)
(0.472509 1.99939e-19 0)
(0.473249 2.02728e-19 0)
(0.473986 2.05731e-19 0)
(0.474718 2.08948e-19 0)
(0.475448 2.12385e-19 0)
(0.476173 2.1605e-19 0)
(0.476895 2.1996e-19 0)
(0.477614 2.2409e-19 0)
(0.478329 2.28465e-19 0)
(0.479041 2.33111e-19 0)
(0.47975 2.38058e-19 0)
(0.480455 2.43339e-19 0)
(0.481156 2.48946e-19 0)
(0.481855 2.54917e-19 0)
(0.48255 2.61241e-19 0)
(0.483242 2.67943e-19 0)
(0.483931 2.74986e-19 0)
(0.484617 2.82352e-19 0)
(0.485299 2.89936e-19 0)
(0.485978 2.97576e-19 0)
(0.486655 3.05065e-19 0)
(0.487328 3.12219e-19 0)
(0.487998 3.17443e-19 0)
(0.488665 2.96479e-19 0)
(0.489329 2.75653e-19 0)
(0.48999 2.81015e-19 0)
(0.490648 2.88335e-19 0)
(0.491303 2.96038e-19 0)
(0.491955 3.03941e-19 0)
(0.492604 3.11802e-19 0)
(0.493251 3.19505e-19 0)
(0.493894 3.2695e-19 0)
(0.494535 3.34081e-19 0)
(0.495173 3.4091e-19 0)
(0.495808 3.47425e-19 0)
(0.49644 3.53622e-19 0)
(0.497069 3.59541e-19 0)
(0.497696 3.65221e-19 0)
(0.49832 3.70661e-19 0)
(0.498942 3.75895e-19 0)
(0.49956 3.80954e-19 0)
(0.500176 3.85863e-19 0)
(0.500789 3.90641e-19 0)
(0.5014 3.95309e-19 0)
(0.502008 3.99884e-19 0)
(0.502614 4.04383e-19 0)
(0.503217 4.08783e-19 0)
(0.503817 4.13098e-19 0)
(0.504415 4.17339e-19 0)
(0.50501 4.21514e-19 0)
(0.505603 4.2563e-19 0)
(0.506193 4.29693e-19 0)
(0.506781 4.33707e-19 0)
(0.507366 4.37676e-19 0)
(0.507949 4.41603e-19 0)
(0.508529 4.4549e-19 0)
(0.509107 4.4934e-19 0)
(0.509682 4.53153e-19 0)
(0.510256 4.56931e-19 0)
(0.510826 4.60675e-19 0)
(0.511395 4.64387e-19 0)
(0.511961 4.68067e-19 0)
(0.512525 4.71715e-19 0)
(0.513086 4.75333e-19 0)
(0.513645 4.78921e-19 0)
(0.514202 4.82479e-19 0)
(0.514756 4.86007e-19 0)
(0.515308 4.89505e-19 0)
(0.515858 4.92974e-19 0)
(0.516406 4.96414e-19 0)
(0.516952 4.99825e-19 0)
(0.517495 5.03205e-19 0)
(0.518036 5.06557e-19 0)
(0.518575 5.09879e-19 0)
(0.519111 5.13171e-19 0)
(0.519646 5.16434e-19 0)
(0.520178 5.19667e-19 0)
(0.520708 5.2287e-19 0)
(0.521236 5.26043e-19 0)
(0.521762 5.29186e-19 0)
(0.522286 5.32299e-19 0)
(0.522808 5.35382e-19 0)
(0.523327 5.38435e-19 0)
(0.523845 5.41458e-19 0)
(0.52436 5.44451e-19 0)
(0.524873 5.47414e-19 0)
(0.525385 5.50348e-19 0)
(0.525894 5.53252e-19 0)
(0.526401 5.56127e-19 0)
(0.526906 5.58973e-19 0)
(0.52741 5.61791e-19 0)
(0.527911 5.64579e-19 0)
(0.52841 5.67339e-19 0)
(0.528907 5.70072e-19 0)
(0.529402 5.72776e-19 0)
(0.529896 5.75454e-19 0)
(0.530387 5.78104e-19 0)
(0.530876 5.80728e-19 0)
(0.531364 5.83325e-19 0)
(0.531849 5.85896e-19 0)
(0.532333 5.88442e-19 0)
(0.532814 5.90962e-19 0)
(0.533294 5.93458e-19 0)
(0.533772 5.95929e-19 0)
(0.534248 5.98376e-19 0)
(0.534722 6.00799e-19 0)
(0.535194 6.03199e-19 0)
(0.535664 6.05576e-19 0)
(0.536133 6.0793e-19 0)
(0.536599 6.10262e-19 0)
(0.537064 6.12571e-19 0)
(0.537527 6.14859e-19 0)
(0.537988 6.17126e-19 0)
(0.538448 6.19372e-19 0)
(0.538905 6.21597e-19 0)
(0.539361 6.23801e-19 0)
(0.539815 6.25986e-19 0)
(0.540267 6.28151e-19 0)
(0.540718 6.30296e-19 0)
(0.541166 6.32423e-19 0)
(0.541613 6.3453e-19 0)
(0.542058 6.36619e-19 0)
(0.542502 6.38689e-19 0)
(0.542943 6.40742e-19 0)
(0.543383 6.42776e-19 0)
(0.543821 6.44793e-19 0)
(0.544258 6.46793e-19 0)
(0.544692 6.48776e-19 0)
(0.545125 6.50742e-19 0)
(0.545557 6.52691e-19 0)
(0.545986 6.54625e-19 0)
(0.546414 6.56542e-19 0)
(0.546841 6.58443e-19 0)
(0.547265 6.60328e-19 0)
(0.547688 6.62198e-19 0)
(0.548109 6.64053e-19 0)
(0.548529 6.65893e-19 0)
(0.548947 6.67719e-19 0)
(0.549363 6.69529e-19 0)
(0.549778 6.71325e-19 0)
(0.550191 6.73107e-19 0)
(0.550603 6.74876e-19 0)
(0.551013 6.7663e-19 0)
(0.551421 6.78371e-19 0)
(0.551827 6.80098e-19 0)
(0.552233 6.81812e-19 0)
(0.552636 6.83513e-19 0)
(0.553038 6.85201e-19 0)
(0.553438 6.86877e-19 0)
(0.553837 6.8854e-19 0)
(0.554234 6.90191e-19 0)
(0.55463 6.91829e-19 0)
(0.555024 6.93456e-19 0)
(0.555416 6.95071e-19 0)
(0.555807 6.96674e-19 0)
(0.556196 6.98266e-19 0)
(0.556584 6.99846e-19 0)
(0.556971 7.01415e-19 0)
(0.557355 7.02973e-19 0)
(0.557739 7.04521e-19 0)
(0.558121 7.06057e-19 0)
(0.558501 7.07583e-19 0)
(0.55888 7.09099e-19 0)
(0.559257 7.10604e-19 0)
(0.559633 7.121e-19 0)
(0.560007 7.13585e-19 0)
(0.56038 7.1506e-19 0)
(0.560751 7.16526e-19 0)
(0.561121 7.17982e-19 0)
(0.561489 7.19429e-19 0)
(0.561856 7.20867e-19 0)
(0.562222 7.22295e-19 0)
(0.562586 7.23714e-19 0)
(0.562949 7.25125e-19 0)
(0.56331 7.26526e-19 0)
(0.563669 7.27919e-19 0)
(0.564028 7.29304e-19 0)
(0.564385 7.3068e-19 0)
(0.56474 7.32047e-19 0)
(0.565094 7.33407e-19 0)
(0.565447 7.34758e-19 0)
(0.565798 7.36102e-19 0)
(0.566148 7.37438e-19 0)
(0.566496 7.38766e-19 0)
(0.566843 7.40086e-19 0)
(0.567189 7.41399e-19 0)
(0.567533 7.42704e-19 0)
(0.567876 7.44002e-19 0)
(0.568218 7.45293e-19 0)
(0.568558 7.46577e-19 0)
(0.568896 7.47854e-19 0)
(0.569234 7.49124e-19 0)
(0.56957 7.50387e-19 0)
(0.569905 7.51643e-19 0)
(0.570238 7.52893e-19 0)
(0.57057 7.54137e-19 0)
(0.570901 7.55374e-19 0)
(0.57123 7.56604e-19 0)
(0.571558 7.57828e-19 0)
(0.571885 7.59046e-19 0)
(0.57221 7.60259e-19 0)
(0.572534 7.61465e-19 0)
(0.572857 7.62665e-19 0)
(0.573178 7.63859e-19 0)
(0.573499 7.65048e-19 0)
(0.573817 7.66231e-19 0)
(0.574135 7.67408e-19 0)
(0.574451 7.6858e-19 0)
(0.574766 7.69746e-19 0)
(0.57508 7.70908e-19 0)
(0.575392 7.72063e-19 0)
(0.575704 7.73214e-19 0)
(0.576013 7.7436e-19 0)
(0.576322 7.755e-19 0)
(0.576629 7.76635e-19 0)
(0.576936 7.77766e-19 0)
(0.57724 7.78892e-19 0)
(0.577544 7.80013e-19 0)
(0.577846 7.81129e-19 0)
(0.578148 7.8224e-19 0)
(0.578448 7.83347e-19 0)
(0.578746 7.8445e-19 0)
(0.579044 7.85548e-19 0)
(0.57934 7.86642e-19 0)
(0.579635 7.87731e-19 0)
(0.579929 7.88816e-19 0)
(0.580221 7.89897e-19 0)
(0.580513 7.90974e-19 0)
(0.580803 7.92046e-19 0)
(0.581092 7.93115e-19 0)
(0.58138 7.94179e-19 0)
(0.581666 7.9524e-19 0)
(0.581952 7.96297e-19 0)
(0.582236 7.9735e-19 0)
(0.582519 7.98399e-19 0)
(0.582801 7.99445e-19 0)
(0.583082 8.00487e-19 0)
(0.583361 8.01525e-19 0)
(0.583639 8.0256e-19 0)
(0.583917 8.03591e-19 0)
(0.584193 8.04619e-19 0)
(0.584468 8.05643e-19 0)
(0.584741 8.06664e-19 0)
(0.585014 8.07682e-19 0)
(0.585286 8.08697e-19 0)
(0.585556 8.09708e-19 0)
(0.585825 8.10716e-19 0)
(0.586093 8.11721e-19 0)
(0.58636 8.12723e-19 0)
(0.586626 8.13722e-19 0)
(0.586891 8.14718e-19 0)
(0.587155 8.15711e-19 0)
(0.587417 8.16702e-19 0)
(0.587678 8.17689e-19 0)
(0.587939 8.18674e-19 0)
(0.588198 8.19655e-19 0)
(0.588456 8.20634e-19 0)
(0.588713 8.21611e-19 0)
(0.588969 8.22584e-19 0)
(0.589224 8.23556e-19 0)
(0.589478 8.24524e-19 0)
(0.589731 8.2549e-19 0)
(0.589982 8.26454e-19 0)
(0.590233 8.27415e-19 0)
(0.590482 8.28374e-19 0)
(0.590731 8.2933e-19 0)
(0.590978 8.30284e-19 0)
(0.591225 8.31236e-19 0)
(0.59147 8.32185e-19 0)
(0.591714 8.33133e-19 0)
(0.591958 8.34078e-19 0)
(0.5922 8.35021e-19 0)
(0.592441 8.35962e-19 0)
(0.592681 8.36901e-19 0)
(0.59292 8.37837e-19 0)
(0.593158 8.38772e-19 0)
(0.593395 8.39705e-19 0)
(0.593631 8.40636e-19 0)
(0.593867 8.41565e-19 0)
(0.594101 8.42492e-19 0)
(0.594334 8.43417e-19 0)
(0.594566 8.44341e-19 0)
(0.594797 8.45262e-19 0)
(0.595027 8.46182e-19 0)
(0.595256 8.47101e-19 0)
(0.595484 8.48017e-19 0)
(0.595711 8.48932e-19 0)
(0.595937 8.49846e-19 0)
(0.596162 8.50757e-19 0)
(0.596387 8.51668e-19 0)
(0.59661 8.52577e-19 0)
(0.596832 8.53484e-19 0)
(0.597053 8.5439e-19 0)
(0.597274 8.55294e-19 0)
(0.597493 8.56198e-19 0)
(0.597711 8.57099e-19 0)
(0.597929 8.58e-19 0)
(0.598145 8.58899e-19 0)
(0.598361 8.59797e-19 0)
(0.598576 8.60694e-19 0)
(0.598789 8.61589e-19 0)
(0.599002 8.62484e-19 0)
(0.599214 8.63377e-19 0)
(0.599425 8.64269e-19 0)
(0.599635 8.6516e-19 0)
(0.599844 8.6605e-19 0)
(0.600053 8.66939e-19 0)
(0.60026 8.67827e-19 0)
(0.600466 8.68714e-19 0)
(0.600672 8.696e-19 0)
(0.600876 8.70486e-19 0)
(0.60108 8.7137e-19 0)
(0.601283 8.72254e-19 0)
(0.601485 8.73136e-19 0)
(0.601686 8.74018e-19 0)
(0.601886 8.749e-19 0)
(0.602085 8.7578e-19 0)
(0.602284 8.7666e-19 0)
(0.602481 8.77539e-19 0)
(0.602678 8.78418e-19 0)
(0.602874 8.79296e-19 0)
(0.603069 8.80173e-19 0)
(0.603263 8.8105e-19 0)
(0.603456 8.81926e-19 0)
(0.603649 8.82802e-19 0)
(0.60384 8.83678e-19 0)
(0.604031 8.84553e-19 0)
(0.604221 8.85427e-19 0)
(0.60441 8.86301e-19 0)
(0.604598 8.87175e-19 0)
(0.604786 8.88049e-19 0)
(0.604972 8.88922e-19 0)
(0.605158 8.89795e-19 0)
(0.605343 8.90668e-19 0)
(0.605527 8.9154e-19 0)
(0.60571 8.92412e-19 0)
(0.605893 8.93285e-19 0)
(0.606074 8.94157e-19 0)
(0.606255 8.95029e-19 0)
(0.606435 8.959e-19 0)
(0.606614 8.96772e-19 0)
(0.606793 8.97644e-19 0)
(0.606971 8.98516e-19 0)
(0.607148 8.99388e-19 0)
(0.607324 9.0026e-19 0)
(0.607499 9.01132e-19 0)
(0.607674 9.02004e-19 0)
(0.607847 9.02876e-19 0)
(0.60802 9.03749e-19 0)
(0.608193 9.04622e-19 0)
(0.608364 9.05495e-19 0)
(0.608535 9.06368e-19 0)
(0.608705 9.07241e-19 0)
(0.608874 9.08115e-19 0)
(0.609042 9.08989e-19 0)
(0.60921 9.09864e-19 0)
(0.609377 9.10739e-19 0)
(0.609543 9.11614e-19 0)
(0.609709 9.1249e-19 0)
(0.609873 9.13366e-19 0)
(0.610037 9.14243e-19 0)
(0.610201 9.15121e-19 0)
(0.610363 9.15998e-19 0)
(0.610525 9.16877e-19 0)
(0.610686 9.17756e-19 0)
(0.610846 9.18636e-19 0)
(0.611006 9.19516e-19 0)
(0.611165 9.20397e-19 0)
(0.611323 9.21279e-19 0)
(0.611481 9.22162e-19 0)
(0.611638 9.23045e-19 0)
(0.611794 9.23929e-19 0)
(0.611949 9.24814e-19 0)
(0.612104 9.257e-19 0)
(0.612258 9.26587e-19 0)
(0.612411 9.27475e-19 0)
(0.612564 9.28363e-19 0)
(0.612716 9.29253e-19 0)
(0.612867 9.30143e-19 0)
(0.613018 9.31035e-19 0)
(0.613168 9.31928e-19 0)
(0.613317 9.32822e-19 0)
(0.613466 9.33716e-19 0)
(0.613614 9.34612e-19 0)
(0.613761 9.35509e-19 0)
(0.613908 9.36408e-19 0)
(0.614054 9.37307e-19 0)
(0.614199 9.38208e-19 0)
(0.614343 9.3911e-19 0)
(0.614487 9.40014e-19 0)
(0.614631 9.40918e-19 0)
(0.614774 9.41824e-19 0)
(0.614916 9.42732e-19 0)
(0.615057 9.43641e-19 0)
(0.615198 9.44551e-19 0)
(0.615338 9.45463e-19 0)
(0.615478 9.46376e-19 0)
(0.615617 9.47291e-19 0)
(0.615755 9.48207e-19 0)
(0.615893 9.49125e-19 0)
(0.61603 9.50044e-19 0)
(0.616166 9.50965e-19 0)
(0.616302 9.51888e-19 0)
(0.616437 9.52813e-19 0)
(0.616572 9.53739e-19 0)
(0.616706 9.54667e-19 0)
(0.616839 9.55597e-19 0)
(0.616972 9.56528e-19 0)
(0.617104 9.57461e-19 0)
(0.617236 9.58397e-19 0)
(0.617367 9.59334e-19 0)
(0.617497 9.60273e-19 0)
(0.617627 9.61214e-19 0)
(0.617756 9.62157e-19 0)
(0.617885 9.63102e-19 0)
(0.618013 9.64049e-19 0)
(0.618141 9.64998e-19 0)
(0.618267 9.65949e-19 0)
(0.618394 9.66902e-19 0)
(0.61852 9.67857e-19 0)
(0.618645 9.68815e-19 0)
(0.61877 9.69775e-19 0)
(0.618894 9.70737e-19 0)
(0.619017 9.71701e-19 0)
(0.61914 9.72668e-19 0)
(0.619263 9.73636e-19 0)
(0.619385 9.74608e-19 0)
(0.619506 9.75581e-19 0)
(0.619627 9.76557e-19 0)
(0.619747 9.77536e-19 0)
(0.619867 9.78517e-19 0)
(0.619986 9.795e-19 0)
(0.620105 9.80486e-19 0)
(0.620223 9.81475e-19 0)
(0.62034 9.82466e-19 0)
(0.620457 9.8346e-19 0)
(0.620574 9.84456e-19 0)
(0.62069 9.85456e-19 0)
(0.620805 9.86457e-19 0)
(0.62092 9.87462e-19 0)
(0.621035 9.88469e-19 0)
(0.621149 9.8948e-19 0)
(0.621262 9.90493e-19 0)
(0.621375 9.91509e-19 0)
(0.621487 9.92527e-19 0)
(0.621599 9.93549e-19 0)
(0.621711 9.94574e-19 0)
(0.621822 9.95602e-19 0)
(0.621932 9.96632e-19 0)
(0.622042 9.97666e-19 0)
(0.622151 9.98703e-19 0)
(0.62226 9.99743e-19 0)
(0.622369 1.00079e-18 0)
(0.622477 1.00183e-18 0)
(0.622584 1.00288e-18 0)
(0.622691 1.00393e-18 0)
(0.622797 1.00499e-18 0)
(0.622903 1.00605e-18 0)
(0.623009 1.00711e-18 0)
(0.623114 1.00818e-18 0)
(0.623219 1.00925e-18 0)
(0.623323 1.01032e-18 0)
(0.623426 1.0114e-18 0)
(0.62353 1.01248e-18 0)
(0.623632 1.01356e-18 0)
(0.623734 1.01465e-18 0)
(0.623836 1.01574e-18 0)
(0.623938 1.01683e-18 0)
(0.624038 1.01793e-18 0)
(0.624139 1.01903e-18 0)
(0.624239 1.02014e-18 0)
(0.624338 1.02125e-18 0)
(0.624437 1.02236e-18 0)
(0.624536 1.02348e-18 0)
(0.624634 1.0246e-18 0)
(0.624732 1.02572e-18 0)
(0.624829 1.02685e-18 0)
(0.624926 1.02798e-18 0)
(0.625023 1.02912e-18 0)
(0.625119 1.03026e-18 0)
(0.625214 1.0314e-18 0)
(0.625309 1.03255e-18 0)
(0.625404 1.0337e-18 0)
(0.625498 1.03486e-18 0)
(0.625592 1.03602e-18 0)
(0.625686 1.03718e-18 0)
(0.625779 1.03835e-18 0)
(0.625871 1.03953e-18 0)
(0.625963 1.0407e-18 0)
(0.626055 1.04189e-18 0)
(0.626147 1.04307e-18 0)
(0.626237 1.04426e-18 0)
(0.626328 1.04546e-18 0)
(0.626418 1.04666e-18 0)
(0.626508 1.04786e-18 0)
(0.626597 1.04907e-18 0)
(0.626686 1.05028e-18 0)
(0.626775 1.0515e-18 0)
(0.626863 1.05272e-18 0)
(0.626951 1.05395e-18 0)
(0.627038 1.05518e-18 0)
(0.627125 1.05641e-18 0)
(0.627211 1.05765e-18 0)
(0.627298 1.0589e-18 0)
(0.627383 1.06015e-18 0)
(0.627469 1.0614e-18 0)
(0.627554 1.06266e-18 0)
(0.627638 1.06392e-18 0)
(0.627723 1.06519e-18 0)
(0.627806 1.06646e-18 0)
(0.62789 1.06774e-18 0)
(0.627973 1.06902e-18 0)
(0.628056 1.07031e-18 0)
(0.628138 1.0716e-18 0)
(0.62822 1.0729e-18 0)
(0.628302 1.0742e-18 0)
(0.628383 1.07551e-18 0)
(0.628464 1.07682e-18 0)
(0.628545 1.07813e-18 0)
(0.628625 1.07945e-18 0)
(0.628705 1.08078e-18 0)
(0.628784 1.08211e-18 0)
(0.628863 1.08344e-18 0)
(0.628942 1.08478e-18 0)
(0.62902 1.08613e-18 0)
(0.629098 1.08748e-18 0)
(0.629176 1.08883e-18 0)
(0.629254 1.09019e-18 0)
(0.629331 1.09156e-18 0)
(0.629407 1.09293e-18 0)
(0.629484 1.0943e-18 0)
(0.62956 1.09568e-18 0)
(0.629635 1.09706e-18 0)
(0.62971 1.09845e-18 0)
(0.629785 1.09984e-18 0)
(0.62986 1.10124e-18 0)
(0.629934 1.10265e-18 0)
(0.630008 1.10405e-18 0)
(0.630082 1.10547e-18 0)
(0.630155 1.10688e-18 0)
(0.630228 1.10831e-18 0)
(0.630301 1.10973e-18 0)
(0.630373 1.11117e-18 0)
(0.630445 1.1126e-18 0)
(0.630517 1.11404e-18 0)
(0.630588 1.11549e-18 0)
(0.630659 1.11694e-18 0)
(0.63073 1.1184e-18 0)
(0.6308 1.11986e-18 0)
(0.630871 1.12133e-18 0)
(0.63094 1.1228e-18 0)
(0.63101 1.12427e-18 0)
(0.631079 1.12575e-18 0)
(0.631148 1.12724e-18 0)
(0.631216 1.12873e-18 0)
(0.631285 1.13022e-18 0)
(0.631352 1.13172e-18 0)
(0.63142 1.13323e-18 0)
(0.631487 1.13474e-18 0)
(0.631554 1.13625e-18 0)
(0.631621 1.13777e-18 0)
(0.631688 1.13929e-18 0)
(0.631754 1.14082e-18 0)
(0.631819 1.14235e-18 0)
(0.631885 1.14389e-18 0)
(0.63195 1.14544e-18 0)
(0.632015 1.14698e-18 0)
(0.63208 1.14854e-18 0)
(0.632144 1.15009e-18 0)
(0.632208 1.15166e-18 0)
(0.632272 1.15322e-18 0)
(0.632336 1.1548e-18 0)
(0.632399 1.15637e-18 0)
(0.632462 1.15795e-18 0)
(0.632524 1.15954e-18 0)
(0.632587 1.16113e-18 0)
(0.632649 1.16273e-18 0)
(0.632711 1.16433e-18 0)
(0.632772 1.16593e-18 0)
(0.632833 1.16754e-18 0)
(0.632894 1.16916e-18 0)
(0.632955 1.17078e-18 0)
(0.633016 1.1724e-18 0)
(0.633076 1.17403e-18 0)
(0.633136 1.17566e-18 0)
(0.633195 1.1773e-18 0)
(0.633255 1.17895e-18 0)
(0.633314 1.18059e-18 0)
(0.633373 1.18225e-18 0)
(0.633431 1.1839e-18 0)
(0.63349 1.18556e-18 0)
(0.633548 1.18723e-18 0)
(0.633605 1.1889e-18 0)
(0.633663 1.19058e-18 0)
(0.63372 1.19226e-18 0)
(0.633777 1.19394e-18 0)
(0.633834 1.19563e-18 0)
(0.63389 1.19733e-18 0)
(0.633947 1.19903e-18 0)
(0.634003 1.20073e-18 0)
(0.634059 1.20244e-18 0)
(0.634114 1.20415e-18 0)
(0.634169 1.20587e-18 0)
(0.634224 1.20759e-18 0)
(0.634279 1.20932e-18 0)
(0.634334 1.21105e-18 0)
(0.634388 1.21278e-18 0)
(0.634442 1.21452e-18 0)
(0.634496 1.21627e-18 0)
(0.634549 1.21802e-18 0)
(0.634603 1.21977e-18 0)
(0.634656 1.22153e-18 0)
(0.634708 1.22329e-18 0)
(0.634761 1.22505e-18 0)
(0.634813 1.22682e-18 0)
(0.634865 1.22859e-18 0)
(0.634917 1.23037e-18 0)
(0.634969 1.23216e-18 0)
(0.63502 1.23395e-18 0)
(0.635072 1.23574e-18 0)
(0.635123 1.23754e-18 0)
(0.635173 1.23934e-18 0)
(0.635224 1.24114e-18 0)
(0.635274 1.24295e-18 0)
(0.635324 1.24477e-18 0)
(0.635374 1.24659e-18 0)
(0.635424 1.24842e-18 0)
(0.635473 1.25024e-18 0)
(0.635522 1.25208e-18 0)
(0.635571 1.25392e-18 0)
(0.63562 1.25576e-18 0)
(0.635668 1.25761e-18 0)
(0.635717 1.25946e-18 0)
(0.635765 1.26132e-18 0)
(0.635813 1.26318e-18 0)
(0.63586 1.26504e-18 0)
(0.635908 1.26691e-18 0)
(0.635955 1.26879e-18 0)
(0.636002 1.27067e-18 0)
(0.636049 1.27255e-18 0)
(0.636095 1.27444e-18 0)
(0.636142 1.27634e-18 0)
(0.636188 1.27823e-18 0)
(0.636234 1.28013e-18 0)
(0.636279 1.28204e-18 0)
(0.636325 1.28395e-18 0)
(0.63637 1.28586e-18 0)
(0.636415 1.28778e-18 0)
(0.63646 1.28971e-18 0)
(0.636505 1.29164e-18 0)
(0.63655 1.29357e-18 0)
(0.636594 1.29551e-18 0)
(0.636638 1.29745e-18 0)
(0.636682 1.29939e-18 0)
(0.636726 1.30134e-18 0)
(0.636769 1.3033e-18 0)
(0.636812 1.30526e-18 0)
(0.636856 1.30723e-18 0)
(0.636899 1.3092e-18 0)
(0.636941 1.31117e-18 0)
(0.636984 1.31314e-18 0)
(0.637026 1.31512e-18 0)
(0.637068 1.31711e-18 0)
(0.63711 1.3191e-18 0)
(0.637152 1.32109e-18 0)
(0.637194 1.32309e-18 0)
(0.637235 1.32509e-18 0)
(0.637276 1.3271e-18 0)
(0.637317 1.32911e-18 0)
(0.637358 1.33112e-18 0)
(0.637399 1.33314e-18 0)
(0.637439 1.33516e-18 0)
(0.63748 1.33719e-18 0)
(0.63752 1.33922e-18 0)
(0.63756 1.34126e-18 0)
(0.6376 1.3433e-18 0)
(0.637639 1.34535e-18 0)
(0.637679 1.3474e-18 0)
(0.637718 1.34946e-18 0)
(0.637757 1.35152e-18 0)
(0.637796 1.35358e-18 0)
(0.637834 1.35565e-18 0)
(0.637873 1.35772e-18 0)
(0.637911 1.3598e-18 0)
(0.637949 1.36188e-18 0)
(0.637987 1.36397e-18 0)
(0.638025 1.36605e-18 0)
(0.638063 1.36815e-18 0)
(0.6381 1.37024e-18 0)
(0.638138 1.37234e-18 0)
(0.638175 1.37444e-18 0)
(0.638212 1.37655e-18 0)
(0.638248 1.37866e-18 0)
(0.638285 1.38077e-18 0)
(0.638322 1.38288e-18 0)
(0.638358 1.38499e-18 0)
(0.638394 1.38711e-18 0)
(0.63843 1.38923e-18 0)
(0.638466 1.39135e-18 0)
(0.638501 1.39347e-18 0)
(0.638537 1.39559e-18 0)
(0.638572 1.39772e-18 0)
(0.638607 1.39984e-18 0)
(0.638642 1.40197e-18 0)
(0.638677 1.4041e-18 0)
(0.638712 1.40623e-18 0)
(0.638746 1.40836e-18 0)
(0.638781 1.41049e-18 0)
(0.638815 1.41262e-18 0)
(0.638849 1.41475e-18 0)
(0.638883 1.41688e-18 0)
(0.638917 1.41901e-18 0)
(0.63895 1.42113e-18 0)
(0.638984 1.42326e-18 0)
(0.639017 1.42539e-18 0)
(0.63905 1.42751e-18 0)
(0.639083 1.42963e-18 0)
(0.639116 1.43175e-18 0)
(0.639148 1.43387e-18 0)
(0.639181 1.43598e-18 0)
(0.639213 1.4381e-18 0)
(0.639246 1.4402e-18 0)
(0.639278 1.44231e-18 0)
(0.63931 1.44441e-18 0)
(0.639341 1.4465e-18 0)
(0.639373 1.4486e-18 0)
(0.639405 1.45068e-18 0)
(0.639436 1.45277e-18 0)
(0.639467 1.45485e-18 0)
(0.639498 1.45693e-18 0)
(0.639529 1.459e-18 0)
(0.63956 1.46107e-18 0)
(0.63959 1.46313e-18 0)
(0.639621 1.46519e-18 0)
(0.639651 1.46725e-18 0)
(0.639681 1.46929e-18 0)
(0.639712 1.47134e-18 0)
(0.639741 1.47337e-18 0)
(0.639771 1.4754e-18 0)
(0.639801 1.47743e-18 0)
(0.63983 1.47945e-18 0)
(0.63986 1.48146e-18 0)
(0.639889 1.48346e-18 0)
(0.639918 1.48546e-18 0)
(0.639947 1.48745e-18 0)
(0.639976 1.48944e-18 0)
(0.640005 1.49142e-18 0)
(0.640033 1.4934e-18 0)
(0.640062 1.49537e-18 0)
(0.64009 1.49733e-18 0)
(0.640118 1.49929e-18 0)
(0.640146 1.50125e-18 0)
(0.640174 1.5032e-18 0)
(0.640202 1.50515e-18 0)
(0.64023 1.50709e-18 0)
(0.640257 1.50904e-18 0)
(0.640285 1.51098e-18 0)
(0.640312 1.51292e-18 0)
(0.640339 1.51486e-18 0)
(0.640366 1.5168e-18 0)
(0.640393 1.51874e-18 0)
(0.64042 1.52069e-18 0)
(0.640446 1.52264e-18 0)
(0.640473 1.5246e-18 0)
(0.640499 1.52656e-18 0)
(0.640525 1.52854e-18 0)
(0.640552 1.53052e-18 0)
(0.640578 1.53251e-18 0)
(0.640604 1.53453e-18 0)
(0.640629 1.53655e-18 0)
(0.640655 1.5386e-18 0)
(0.640681 1.54067e-18 0)
(0.640706 1.54276e-18 0)
(0.640731 1.54487e-18 0)
(0.640757 1.54702e-18 0)
(0.640782 1.5492e-18 0)
(0.640807 1.55141e-18 0)
(0.640831 1.55367e-18 0)
(0.640856 1.55596e-18 0)
(0.640881 1.5583e-18 0)
(0.640905 1.56069e-18 0)
(0.64093 1.56313e-18 0)
(0.640954 1.56563e-18 0)
(0.640978 1.56819e-18 0)
(0.641002 1.57081e-18 0)
(0.641026 1.57349e-18 0)
(0.64105 1.57625e-18 0)
(0.641073 1.57908e-18 0)
(0.641097 1.58199e-18 0)
(0.64112 1.58497e-18 0)
(0.641144 1.58803e-18 0)
(0.641167 1.59117e-18 0)
(0.64119 1.59439e-18 0)
(0.641213 1.59768e-18 0)
(0.641236 1.60105e-18 0)
(0.641259 1.60448e-18 0)
(0.641282 1.60797e-18 0)
(0.641304 1.6115e-18 0)
(0.641327 1.61507e-18 0)
(0.641349 1.61866e-18 0)
(0.641371 1.62224e-18 0)
(0.641394 1.62579e-18 0)
(0.641416 1.62928e-18 0)
(0.641438 1.63268e-18 0)
(0.64146 1.63596e-18 0)
(0.641481 1.63906e-18 0)
(0.641503 1.64195e-18 0)
(0.641524 1.64456e-18 0)
(0.641546 1.64685e-18 0)
(0.641567 1.64874e-18 0)
(0.641589 1.65018e-18 0)
(0.64161 1.6511e-18 0)
(0.641631 1.65143e-18 0)
(0.641652 1.6511e-18 0)
(0.641672 1.65001e-18 0)
(0.641693 1.6481e-18 0)
(0.641714 1.64527e-18 0)
(0.641734 1.64142e-18 0)
(0.641755 1.63639e-18 0)
(0.641775 1.62998e-18 0)
(0.641795 1.62186e-18 0)
(0.641816 1.61206e-18 0)
(0.641836 1.59514e-18 0)
(0.641856 1.59118e-18 0)
(0.641875 1.58615e-18 0)
(0.641895 1.56636e-18 0)
(0.641915 1.54733e-18 0)
(0.641935 1.51088e-18 0)
(0.641954 1.47334e-18 0)
(0.641973 1.45074e-18 0)
(0.641993 1.42486e-18 0)
(0.642012 1.37729e-18 0)
(0.642031 1.32705e-18 0)
(0.64205 1.29279e-18 0)
(0.642069 1.25849e-18 0)
(0.642088 1.2306e-18 0)
(0.642107 1.20378e-18 0)
(0.642125 1.17212e-18 0)
(0.642144 1.15173e-18 0)
(0.642162 1.14865e-18 0)
(0.642181 1.1437e-18 0)
(0.642199 1.12345e-18 0)
(0.642217 1.10873e-18 0)
(0.642235 1.09511e-18 0)
(0.642253 1.08481e-18 0)
(0.642271 1.08111e-18 0)
(0.642289 1.06834e-18 0)
(0.642307 1.07165e-18 0)
(0.642325 1.07682e-18 0)
(0.642342 1.07041e-18 0)
(0.64236 1.06967e-18 0)
(0.642377 1.05518e-18 0)
(0.642394 1.04439e-18 0)
(0.642412 1.05828e-18 0)
(0.642429 1.07498e-18 0)
(0.642446 1.05484e-18 0)
(0.642463 1.02908e-18 0)
(0.64248 1.03377e-18 0)
(0.642497 1.04968e-18 0)
(0.642514 1.08203e-18 0)
(0.64253 1.11152e-18 0)
(0.642547 1.12188e-18 0)
(0.642563 1.12086e-18 0)
(0.64258 1.13437e-18 0)
(0.642596 1.14461e-18 0)
(0.642612 1.13693e-18 0)
(0.642629 1.1367e-18 0)
(0.642645 1.15927e-18 0)
(0.642661 1.17794e-18 0)
(0.642677 1.16539e-18 0)
(0.642693 1.14277e-18 0)
(0.642708 1.13768e-18 0)
(0.642724 1.13858e-18 0)
(0.64274 1.1323e-18 0)
(0.642755 1.12686e-18 0)
(0.642771 1.09967e-18 0)
(0.642786 1.07301e-18 0)
(0.642802 1.07168e-18 0)
(0.642817 1.08505e-18 0)
(0.642832 1.11579e-18 0)
(0.642847 1.14443e-18 0)
(0.642862 1.15047e-18 0)
(0.642877 1.15023e-18 0)
(0.642892 1.19367e-18 0)
(0.642907 1.23072e-18 0)
(0.642922 1.21179e-18 0)
(0.642936 1.18136e-18 0)
(0.642951 1.1377e-18 0)
(0.642965 1.10032e-18 0)
(0.64298 1.087e-18 0)
(0.642994 1.07801e-18 0)
(0.643009 1.08417e-18 0)
(0.643023 1.09142e-18 0)
(0.643037 1.08828e-18 0)
(0.643051 1.09799e-18 0)
(0.643065 1.13717e-18 0)
(0.643079 1.17572e-18 0)
(0.643093 1.18312e-18 0)
(0.643107 1.18028e-18 0)
(0.643121 1.16053e-18 0)
(0.643134 1.1441e-18 0)
(0.643148 1.14909e-18 0)
(0.643161 1.15041e-18 0)
(0.643175 1.16305e-18 0)
(0.643188 1.17553e-18 0)
(0.643202 1.17251e-18 0)
(0.643215 1.17778e-18 0)
(0.643228 1.21146e-18 0)
(0.643241 1.25001e-18 0)
(0.643254 1.26378e-18 0)
(0.643267 1.26712e-18 0)
(0.64328 1.21659e-18 0)
(0.643293 1.16526e-18 0)
(0.643306 1.16922e-18 0)
(0.643319 1.19e-18 0)
(0.643331 1.18021e-18 0)
(0.643344 1.1706e-18 0)
(0.643357 1.19426e-18 0)
(0.643369 1.21846e-18 0)
(0.643381 1.22981e-18 0)
(0.643394 1.23995e-18 0)
(0.643406 1.26056e-18 0)
(0.643418 1.27929e-18 0)
(0.643431 1.32867e-18 0)
(0.643443 1.37896e-18 0)
(0.643455 1.40134e-18 0)
(0.643467 1.41383e-18 0)
(0.643479 1.39574e-18 0)
(0.643491 1.37702e-18 0)
(0.643502 1.3879e-18 0)
(0.643514 1.3994e-18 0)
(0.643526 1.39365e-18 0)
(0.643537 1.38675e-18 0)
(0.643549 1.39377e-18 0)
(0.643561 1.40775e-18 0)
(0.643572 1.41478e-18 0)
(0.643583 1.41777e-18 0)
(0.643595 1.41925e-18 0)
(0.643606 1.40954e-18 0)
(0.643617 1.38532e-18 0)
(0.643628 1.36481e-18 0)
(0.643639 1.36422e-18 0)
(0.643651 1.36442e-18 0)
(0.643662 1.38014e-18 0)
(0.643672 1.39578e-18 0)
(0.643683 1.39873e-18 0)
(0.643694 1.4085e-18 0)
(0.643705 1.41361e-18 0)
(0.643716 1.40071e-18 0)
(0.643726 1.39065e-18 0)
(0.643737 1.40201e-18 0)
(0.643747 1.4112e-18 0)
(0.643758 1.36393e-18 0)
(0.643768 1.31435e-18 0)
(0.643779 1.31628e-18 0)
(0.643789 1.31714e-18 0)
(0.643799 1.29848e-18 0)
(0.64381 1.27711e-18 0)
(0.64382 1.26925e-18 0)
(0.64383 1.25949e-18 0)
(0.64384 1.21736e-18 0)
(0.64385 1.17487e-18 0)
(0.64386 1.16742e-18 0)
(0.64387 1.16475e-18 0)
(0.64388 1.1148e-18 0)
(0.64389 1.06477e-18 0)
(0.643899 1.06132e-18 0)
(0.643909 1.06257e-18 0)
(0.643919 1.07592e-18 0)
(0.643928 1.08491e-18 0)
(0.643938 1.0733e-18 0)
(0.643947 1.04688e-18 0)
(0.643957 1.02118e-18 0)
(0.643966 9.94843e-19 0)
(0.643976 9.62952e-19 0)
(0.643985 9.44701e-19 0)
(0.643994 9.5323e-19 0)
(0.644003 9.63066e-19 0)
(0.644013 9.47892e-19 0)
(0.644022 9.30201e-19 0)
(0.644031 9.66112e-19 0)
(0.64404 1.00294e-18 0)
(0.644049 9.91665e-19 0)
(0.644058 9.84245e-19 0)
(0.644067 1.02942e-18 0)
(0.644075 1.07856e-18 0)
(0.644084 1.08076e-18 0)
(0.644093 1.07222e-18 0)
(0.644102 1.06817e-18 0)
(0.64411 1.06738e-18 0)
(0.644119 1.063e-18 0)
(0.644127 1.05582e-18 0)
(0.644136 1.02689e-18 0)
(0.644144 9.94748e-19 0)