# Wall shear stress
# Time          	patch           	min             	max             
0.5             	top_wall	(-5.87148622e-03 -7.65899599e-28 0.00000000e+00)	(-5.87148622e-03 -7.65899599e-28 0.00000000e+00)
0.5             	bot_wall	(-5.87148273e-03 -3.43151313e-19 0.00000000e+00)	(-5.87148273e-03 -3.43151313e-19 0.00000000e+00)
1               	top_wall	(-5.17495258e-03 8.64291702e-28 0.00000000e+00)	(-5.17495258e-03 8.64291702e-28 0.00000000e+00)
1               	bot_wall	(-5.17495152e-03 -2.40604460e-19 0.00000000e+00)	(-5.17495152e-03 -2.40604460e-19 0.00000000e+00)
1.5             	top_wall	(-4.81140841e-03 -1.71196398e-28 0.00000000e+00)	(-4.81140841e-03 -1.71196398e-28 0.00000000e+00)
1.5             	bot_wall	(-4.81140780e-03 -2.26176212e-19 0.00000000e+00)	(-4.81140780e-03 -2.26176212e-19 0.00000000e+00)
2               	top_wall	(-4.56923268e-03 -1.26452519e-27 0.00000000e+00)	(-4.56923268e-03 -1.26452519e-27 0.00000000e+00)
2               	bot_wall	(-4.56923237e-03 -2.17984966e-19 0.00000000e+00)	(-4.56923237e-03 -2.17984966e-19 0.00000000e+00)
2.5             	top_wall	(-4.38931701e-03 1.13254022e-27 0.00000000e+00)	(-4.38931701e-03 1.13254022e-27 0.00000000e+00)
2.5             	bot_wall	(-4.38931688e-03 -2.00346488e-19 0.00000000e+00)	(-4.38931688e-03 -2.00346488e-19 0.00000000e+00)
3               	top_wall	(-4.24708330e-03 5.68246153e-27 0.00000000e+00)	(-4.24708330e-03 5.68246153e-27 0.00000000e+00)
3               	bot_wall	(-4.24708331e-03 -1.23571727e-19 0.00000000e+00)	(-4.24708331e-03 -1.23571727e-19 0.00000000e+00)
3.5             	top_wall	(-4.13002438e-03 7.47553642e-27 0.00000000e+00)	(-4.13002438e-03 7.47553642e-27 0.00000000e+00)
3.5             	bot_wall	(-4.13002443e-03 -2.30298553e-19 0.00000000e+00)	(-4.13002443e-03 -2.30298553e-19 0.00000000e+00)
4               	top_wall	(-4.03093189e-03 2.26955013e-27 0.00000000e+00)	(-4.03093189e-03 2.26955013e-27 0.00000000e+00)
4               	bot_wall	(-4.03093196e-03 -2.35249316e-19 0.00000000e+00)	(-4.03093196e-03 -2.35249316e-19 0.00000000e+00)
4.5             	top_wall	(-3.94528249e-03 3.03122489e-27 0.00000000e+00)	(-3.94528249e-03 3.03122489e-27 0.00000000e+00)
4.5             	bot_wall	(-3.94528256e-03 -9.92839403e-20 0.00000000e+00)	(-3.94528256e-03 -9.92839403e-20 0.00000000e+00)
5               	top_wall	(-3.87005553e-03 5.51858791e-27 0.00000000e+00)	(-3.87005553e-03 5.51858791e-27 0.00000000e+00)
5               	bot_wall	(-3.87005558e-03 -2.15350524e-19 0.00000000e+00)	(-3.87005558e-03 -2.15350524e-19 0.00000000e+00)
5.5             	top_wall	(-3.80313675e-03 3.78142677e-27 0.00000000e+00)	(-3.80313675e-03 3.78142677e-27 0.00000000e+00)
5.5             	bot_wall	(-3.80313678e-03 -1.44921327e-19 0.00000000e+00)	(-3.80313678e-03 -1.44921327e-19 0.00000000e+00)
6               	top_wall	(-3.74298900e-03 5.54707235e-27 0.00000000e+00)	(-3.74298900e-03 5.54707235e-27 0.00000000e+00)
6               	bot_wall	(-3.74298899e-03 -1.36037785e-19 0.00000000e+00)	(-3.74298899e-03 -1.36037785e-19 0.00000000e+00)
6.5             	top_wall	(-3.68846135e-03 1.10586305e-26 0.00000000e+00)	(-3.68846135e-03 1.10586305e-26 0.00000000e+00)
6.5             	bot_wall	(-3.68846131e-03 -3.31119792e-19 0.00000000e+00)	(-3.68846131e-03 -3.31119792e-19 0.00000000e+00)
7               	top_wall	(-3.63866956e-03 1.43148954e-26 0.00000000e+00)	(-3.63866956e-03 1.43148954e-26 0.00000000e+00)
7               	bot_wall	(-3.63866950e-03 -9.81094534e-20 0.00000000e+00)	(-3.63866950e-03 -9.81094534e-20 0.00000000e+00)
7.5             	top_wall	(-3.59292011e-03 1.16008162e-26 0.00000000e+00)	(-3.59292011e-03 1.16008162e-26 0.00000000e+00)
7.5             	bot_wall	(-3.59292002e-03 -1.05048219e-19 0.00000000e+00)	(-3.59292002e-03 -1.05048219e-19 0.00000000e+00)
8               	top_wall	(-3.55065968e-03 7.33732160e-27 0.00000000e+00)	(-3.55065968e-03 7.33732160e-27 0.00000000e+00)
8               	bot_wall	(-3.55065956e-03 -1.53511703e-19 0.00000000e+00)	(-3.55065956e-03 -1.53511703e-19 0.00000000e+00)
8.5             	top_wall	(-3.51143907e-03 5.67169497e-28 0.00000000e+00)	(-3.51143907e-03 5.67169497e-28 0.00000000e+00)
8.5             	bot_wall	(-3.51143893e-03 -7.46065283e-20 0.00000000e+00)	(-3.51143893e-03 -7.46065283e-20 0.00000000e+00)
9               	top_wall	(-3.47488934e-03 2.39987803e-27 0.00000000e+00)	(-3.47488934e-03 2.39987803e-27 0.00000000e+00)
9               	bot_wall	(-3.47488918e-03 -2.11175872e-19 0.00000000e+00)	(-3.47488918e-03 -2.11175872e-19 0.00000000e+00)
9.5             	top_wall	(-3.44070392e-03 3.53488887e-27 0.00000000e+00)	(-3.44070392e-03 3.53488887e-27 0.00000000e+00)
9.5             	bot_wall	(-3.44070373e-03 -1.20269382e-19 0.00000000e+00)	(-3.44070373e-03 -1.20269382e-19 0.00000000e+00)
10              	top_wall	(-3.40862500e-03 -1.05777561e-28 0.00000000e+00)	(-3.40862500e-03 -1.05777561e-28 0.00000000e+00)
10              	bot_wall	(-3.40862480e-03 -1.32512883e-19 0.00000000e+00)	(-3.40862480e-03 -1.32512883e-19 0.00000000e+00)
10.5            	top_wall	(-3.37843383e-03 -2.04384676e-27 0.00000000e+00)	(-3.37843383e-03 -2.04384676e-27 0.00000000e+00)
10.5            	bot_wall	(-3.37843361e-03 -2.79706939e-19 0.00000000e+00)	(-3.37843361e-03 -2.79706939e-19 0.00000000e+00)
11              	top_wall	(-3.34994344e-03 5.06710486e-27 0.00000000e+00)	(-3.34994344e-03 5.06710486e-27 0.00000000e+00)
11              	bot_wall	(-3.34994320e-03 -1.99369069e-19 0.00000000e+00)	(-3.34994320e-03 -1.99369069e-19 0.00000000e+00)
11.5            	top_wall	(-3.32299290e-03 2.83133270e-27 0.00000000e+00)	(-3.32299290e-03 2.83133270e-27 0.00000000e+00)
11.5            	bot_wall	(-3.32299266e-03 -1.46105528e-19 0.00000000e+00)	(-3.32299266e-03 -1.46105528e-19 0.00000000e+00)
12              	top_wall	(-3.29744245e-03 2.02678151e-27 0.00000000e+00)	(-3.29744245e-03 2.02678151e-27 0.00000000e+00)
12              	bot_wall	(-3.29744220e-03 -1.24028167e-19 0.00000000e+00)	(-3.29744220e-03 -1.24028167e-19 0.00000000e+00)
12.5            	top_wall	(-3.27316990e-03 -1.38197442e-27 0.00000000e+00)	(-3.27316990e-03 -1.38197442e-27 0.00000000e+00)
12.5            	bot_wall	(-3.27316963e-03 -2.97470601e-19 0.00000000e+00)	(-3.27316963e-03 -2.97470601e-19 0.00000000e+00)
13              	top_wall	(-3.25006811e-03 -6.36864740e-27 0.00000000e+00)	(-3.25006811e-03 -6.36864740e-27 0.00000000e+00)
13              	bot_wall	(-3.25006784e-03 -2.44202260e-19 0.00000000e+00)	(-3.25006784e-03 -2.44202260e-19 0.00000000e+00)
13.5            	top_wall	(-3.22804255e-03 -1.45429038e-26 0.00000000e+00)	(-3.22804255e-03 -1.45429038e-26 0.00000000e+00)
13.5            	bot_wall	(-3.22804227e-03 -2.51054673e-19 0.00000000e+00)	(-3.22804227e-03 -2.51054673e-19 0.00000000e+00)
14              	top_wall	(-3.20700956e-03 -1.15161353e-26 0.00000000e+00)	(-3.20700956e-03 -1.15161353e-26 0.00000000e+00)
14              	bot_wall	(-3.20700928e-03 4.07791621e-20 0.00000000e+00)	(-3.20700928e-03 4.07791621e-20 0.00000000e+00)
14.5            	top_wall	(-3.18689436e-03 -9.93796555e-27 0.00000000e+00)	(-3.18689436e-03 -9.93796555e-27 0.00000000e+00)
14.5            	bot_wall	(-3.18689407e-03 1.01608793e-20 0.00000000e+00)	(-3.18689407e-03 1.01608793e-20 0.00000000e+00)
15              	top_wall	(-3.16763001e-03 -3.09925983e-26 0.00000000e+00)	(-3.16763001e-03 -3.09925983e-26 0.00000000e+00)
15              	bot_wall	(-3.16762972e-03 -2.16176684e-19 0.00000000e+00)	(-3.16762972e-03 -2.16176684e-19 0.00000000e+00)
15.5            	top_wall	(-3.14915655e-03 -4.68695642e-26 0.00000000e+00)	(-3.14915655e-03 -4.68695642e-26 0.00000000e+00)
15.5            	bot_wall	(-3.14915626e-03 -1.37144079e-19 0.00000000e+00)	(-3.14915626e-03 -1.37144079e-19 0.00000000e+00)
16              	top_wall	(-3.13141991e-03 -4.83829409e-26 0.00000000e+00)	(-3.13141991e-03 -4.83829409e-26 0.00000000e+00)
16              	bot_wall	(-3.13141962e-03 -1.56685582e-19 0.00000000e+00)	(-3.13141962e-03 -1.56685582e-19 0.00000000e+00)
16.5            	top_wall	(-3.11437124e-03 -4.90728809e-26 0.00000000e+00)	(-3.11437124e-03 -4.90728809e-26 0.00000000e+00)
16.5            	bot_wall	(-3.11437095e-03 -7.39448214e-20 0.00000000e+00)	(-3.11437095e-03 -7.39448214e-20 0.00000000e+00)
17              	top_wall	(-3.09796645e-03 -5.35595560e-26 0.00000000e+00)	(-3.09796645e-03 -5.35595560e-26 0.00000000e+00)
17              	bot_wall	(-3.09796616e-03 -2.51919612e-19 0.00000000e+00)	(-3.09796616e-03 -2.51919612e-19 0.00000000e+00)
17.5            	top_wall	(-3.08216502e-03 -6.21477008e-26 0.00000000e+00)	(-3.08216502e-03 -6.21477008e-26 0.00000000e+00)
17.5            	bot_wall	(-3.08216474e-03 -1.80984305e-19 0.00000000e+00)	(-3.08216474e-03 -1.80984305e-19 0.00000000e+00)
18              	top_wall	(-3.06693013e-03 -7.77833174e-26 0.00000000e+00)	(-3.06693013e-03 -7.77833174e-26 0.00000000e+00)
18              	bot_wall	(-3.06692985e-03 -2.04411831e-19 0.00000000e+00)	(-3.06692985e-03 -2.04411831e-19 0.00000000e+00)
18.5            	top_wall	(-3.05222816e-03 -7.79680372e-26 0.00000000e+00)	(-3.05222816e-03 -7.79680372e-26 0.00000000e+00)
18.5            	bot_wall	(-3.05222788e-03 -3.18257628e-19 0.00000000e+00)	(-3.05222788e-03 -3.18257628e-19 0.00000000e+00)
19              	top_wall	(-3.03802827e-03 -8.82808902e-26 0.00000000e+00)	(-3.03802827e-03 -8.82808902e-26 0.00000000e+00)
19              	bot_wall	(-3.03802799e-03 -2.66378648e-19 0.00000000e+00)	(-3.03802799e-03 -2.66378648e-19 0.00000000e+00)
19.5            	top_wall	(-3.02430216e-03 -9.52659552e-26 0.00000000e+00)	(-3.02430216e-03 -9.52659552e-26 0.00000000e+00)
19.5            	bot_wall	(-3.02430189e-03 -3.18044346e-19 0.00000000e+00)	(-3.02430189e-03 -3.18044346e-19 0.00000000e+00)
20              	top_wall	(-3.01102375e-03 -1.01484031e-25 0.00000000e+00)	(-3.01102375e-03 -1.01484031e-25 0.00000000e+00)
20              	bot_wall	(-3.01102347e-03 -3.07334083e-19 0.00000000e+00)	(-3.01102347e-03 -3.07334083e-19 0.00000000e+00)
20.5            	top_wall	(-2.99816921e-03 -9.99958064e-26 0.00000000e+00)	(-2.99816921e-03 -9.99958064e-26 0.00000000e+00)
20.5            	bot_wall	(-2.99816894e-03 -3.48203874e-19 0.00000000e+00)	(-2.99816894e-03 -3.48203874e-19 0.00000000e+00)
21              	top_wall	(-2.98571607e-03 -1.00465795e-25 0.00000000e+00)	(-2.98571607e-03 -1.00465795e-25 0.00000000e+00)
21              	bot_wall	(-2.98571580e-03 -2.09438538e-19 0.00000000e+00)	(-2.98571580e-03 -2.09438538e-19 0.00000000e+00)
21.5            	top_wall	(-2.97364367e-03 -9.82483613e-26 0.00000000e+00)	(-2.97364367e-03 -9.82483613e-26 0.00000000e+00)
21.5            	bot_wall	(-2.97364341e-03 -8.13133894e-20 0.00000000e+00)	(-2.97364341e-03 -8.13133894e-20 0.00000000e+00)
22              	top_wall	(-2.96193290e-03 -9.61085357e-26 0.00000000e+00)	(-2.96193290e-03 -9.61085357e-26 0.00000000e+00)
22              	bot_wall	(-2.96193264e-03 -2.72063293e-19 0.00000000e+00)	(-2.96193264e-03 -2.72063293e-19 0.00000000e+00)
22.5            	top_wall	(-2.95056597e-03 -1.01667426e-25 0.00000000e+00)	(-2.95056597e-03 -1.01667426e-25 0.00000000e+00)
22.5            	bot_wall	(-2.95056572e-03 -2.99693385e-19 0.00000000e+00)	(-2.95056572e-03 -2.99693385e-19 0.00000000e+00)
23              	top_wall	(-2.93952634e-03 -1.10225301e-25 0.00000000e+00)	(-2.93952634e-03 -1.10225301e-25 0.00000000e+00)
23              	bot_wall	(-2.93952609e-03 -2.16407754e-19 0.00000000e+00)	(-2.93952609e-03 -2.16407754e-19 0.00000000e+00)
23.5            	top_wall	(-2.92879857e-03 -1.02550401e-25 0.00000000e+00)	(-2.92879857e-03 -1.02550401e-25 0.00000000e+00)
23.5            	bot_wall	(-2.92879832e-03 -1.45180961e-19 0.00000000e+00)	(-2.92879832e-03 -1.45180961e-19 0.00000000e+00)
24              	top_wall	(-2.91836825e-03 -8.82773405e-26 0.00000000e+00)	(-2.91836825e-03 -8.82773405e-26 0.00000000e+00)
24              	bot_wall	(-2.91836801e-03 -3.19438002e-19 0.00000000e+00)	(-2.91836801e-03 -3.19438002e-19 0.00000000e+00)
24.5            	top_wall	(-2.90822208e-03 -9.99460954e-26 0.00000000e+00)	(-2.90822208e-03 -9.99460954e-26 0.00000000e+00)
24.5            	bot_wall	(-2.90822184e-03 -1.39537202e-19 0.00000000e+00)	(-2.90822184e-03 -1.39537202e-19 0.00000000e+00)
25              	top_wall	(-2.89834733e-03 -9.63814484e-26 0.00000000e+00)	(-2.89834733e-03 -9.63814484e-26 0.00000000e+00)
25              	bot_wall	(-2.89834710e-03 -2.46135570e-19 0.00000000e+00)	(-2.89834710e-03 -2.46135570e-19 0.00000000e+00)
25.5            	top_wall	(-2.88873208e-03 -9.95251950e-26 0.00000000e+00)	(-2.88873208e-03 -9.95251950e-26 0.00000000e+00)
25.5            	bot_wall	(-2.88873185e-03 -2.82357372e-19 0.00000000e+00)	(-2.88873185e-03 -2.82357372e-19 0.00000000e+00)
26              	top_wall	(-2.87936521e-03 -1.07779364e-25 0.00000000e+00)	(-2.87936521e-03 -1.07779364e-25 0.00000000e+00)
26              	bot_wall	(-2.87936499e-03 -2.51438636e-19 0.00000000e+00)	(-2.87936499e-03 -2.51438636e-19 0.00000000e+00)
26.5            	top_wall	(-2.87023628e-03 -1.16889107e-25 0.00000000e+00)	(-2.87023628e-03 -1.16889107e-25 0.00000000e+00)
26.5            	bot_wall	(-2.87023606e-03 -2.34101036e-19 0.00000000e+00)	(-2.87023606e-03 -2.34101036e-19 0.00000000e+00)
27              	top_wall	(-2.86133545e-03 -1.29436044e-25 0.00000000e+00)	(-2.86133545e-03 -1.29436044e-25 0.00000000e+00)
27              	bot_wall	(-2.86133524e-03 -3.33207186e-19 0.00000000e+00)	(-2.86133524e-03 -3.33207186e-19 0.00000000e+00)
27.5            	top_wall	(-2.85265347e-03 -1.44191944e-25 0.00000000e+00)	(-2.85265347e-03 -1.44191944e-25 0.00000000e+00)
27.5            	bot_wall	(-2.85265326e-03 -2.99463559e-20 0.00000000e+00)	(-2.85265326e-03 -2.99463559e-20 0.00000000e+00)
28              	top_wall	(-2.84418160e-03 -1.41340542e-25 0.00000000e+00)	(-2.84418160e-03 -1.41340542e-25 0.00000000e+00)
28              	bot_wall	(-2.84418139e-03 -2.53190683e-19 0.00000000e+00)	(-2.84418139e-03 -2.53190683e-19 0.00000000e+00)
28.5            	top_wall	(-2.83591159e-03 -1.34551065e-25 0.00000000e+00)	(-2.83591159e-03 -1.34551065e-25 0.00000000e+00)
28.5            	bot_wall	(-2.83591139e-03 -2.90769171e-19 0.00000000e+00)	(-2.83591139e-03 -2.90769171e-19 0.00000000e+00)
29              	top_wall	(-2.82783566e-03 -1.35421106e-25 0.00000000e+00)	(-2.82783566e-03 -1.35421106e-25 0.00000000e+00)
29              	bot_wall	(-2.82783546e-03 -2.23827815e-19 0.00000000e+00)	(-2.82783546e-03 -2.23827815e-19 0.00000000e+00)
29.5            	top_wall	(-2.81994666e-03 -1.46283136e-25 0.00000000e+00)	(-2.81994666e-03 -1.46283136e-25 0.00000000e+00)
29.5            	bot_wall	(-2.81994646e-03 -1.38669628e-19 0.00000000e+00)	(-2.81994646e-03 -1.38669628e-19 0.00000000e+00)
30              	top_wall	(-2.81223739e-03 -1.46027912e-25 0.00000000e+00)	(-2.81223739e-03 -1.46027912e-25 0.00000000e+00)
30              	bot_wall	(-2.81223720e-03 -3.11497825e-19 0.00000000e+00)	(-2.81223720e-03 -3.11497825e-19 0.00000000e+00)
30.5            	top_wall	(-2.80470123e-03 -1.52471240e-25 0.00000000e+00)	(-2.80470123e-03 -1.52471240e-25 0.00000000e+00)
30.5            	bot_wall	(-2.80470104e-03 -8.15662994e-20 0.00000000e+00)	(-2.80470104e-03 -8.15662994e-20 0.00000000e+00)
31              	top_wall	(-2.79733189e-03 -1.55830514e-25 0.00000000e+00)	(-2.79733189e-03 -1.55830514e-25 0.00000000e+00)
31              	bot_wall	(-2.79733170e-03 -2.25335789e-19 0.00000000e+00)	(-2.79733170e-03 -2.25335789e-19 0.00000000e+00)
31.5            	top_wall	(-2.79012342e-03 -1.56350520e-25 0.00000000e+00)	(-2.79012342e-03 -1.56350520e-25 0.00000000e+00)
31.5            	bot_wall	(-2.79012323e-03 -1.85264219e-19 0.00000000e+00)	(-2.79012323e-03 -1.85264219e-19 0.00000000e+00)
32              	top_wall	(-2.78307015e-03 -1.55182633e-25 0.00000000e+00)	(-2.78307015e-03 -1.55182633e-25 0.00000000e+00)
32              	bot_wall	(-2.78306998e-03 -3.91255980e-19 0.00000000e+00)	(-2.78306998e-03 -3.91255980e-19 0.00000000e+00)
32.5            	top_wall	(-2.77616673e-03 -1.58215753e-25 0.00000000e+00)	(-2.77616673e-03 -1.58215753e-25 0.00000000e+00)
32.5            	bot_wall	(-2.77616655e-03 -1.93642221e-19 0.00000000e+00)	(-2.77616655e-03 -1.93642221e-19 0.00000000e+00)
33              	top_wall	(-2.76940801e-03 -1.71056592e-25 0.00000000e+00)	(-2.76940801e-03 -1.71056592e-25 0.00000000e+00)
33              	bot_wall	(-2.76940784e-03 -2.52517105e-19 0.00000000e+00)	(-2.76940784e-03 -2.52517105e-19 0.00000000e+00)
33.5            	top_wall	(-2.76278914e-03 -1.66336505e-25 0.00000000e+00)	(-2.76278914e-03 -1.66336505e-25 0.00000000e+00)
33.5            	bot_wall	(-2.76278897e-03 -3.58211064e-19 0.00000000e+00)	(-2.76278897e-03 -3.58211064e-19 0.00000000e+00)
34              	top_wall	(-2.75630546e-03 -1.77627681e-25 0.00000000e+00)	(-2.75630546e-03 -1.77627681e-25 0.00000000e+00)
34              	bot_wall	(-2.75630530e-03 -5.72256016e-20 0.00000000e+00)	(-2.75630530e-03 -5.72256016e-20 0.00000000e+00)
34.5            	top_wall	(-2.74995255e-03 -1.80680111e-25 0.00000000e+00)	(-2.74995255e-03 -1.80680111e-25 0.00000000e+00)
34.5            	bot_wall	(-2.74995239e-03 -1.32230837e-19 0.00000000e+00)	(-2.74995239e-03 -1.32230837e-19 0.00000000e+00)
35              	top_wall	(-2.74372625e-03 -1.79964139e-25 0.00000000e+00)	(-2.74372625e-03 -1.79964139e-25 0.00000000e+00)
35              	bot_wall	(-2.74372609e-03 -4.92712913e-19 0.00000000e+00)	(-2.74372609e-03 -4.92712913e-19 0.00000000e+00)
35.5            	top_wall	(-2.73762262e-03 -1.77987874e-25 0.00000000e+00)	(-2.73762262e-03 -1.77987874e-25 0.00000000e+00)
35.5            	bot_wall	(-2.73762246e-03 -1.33234421e-19 0.00000000e+00)	(-2.73762246e-03 -1.33234421e-19 0.00000000e+00)
36              	top_wall	(-2.73163763e-03 -1.69839102e-25 0.00000000e+00)	(-2.73163763e-03 -1.69839102e-25 0.00000000e+00)
36              	bot_wall	(-2.73163748e-03 -9.68631272e-20 0.00000000e+00)	(-2.73163748e-03 -9.68631272e-20 0.00000000e+00)
36.5            	top_wall	(-2.72576762e-03 -1.64121999e-25 0.00000000e+00)	(-2.72576762e-03 -1.64121999e-25 0.00000000e+00)
36.5            	bot_wall	(-2.72576747e-03 -2.53139886e-19 0.00000000e+00)	(-2.72576747e-03 -2.53139886e-19 0.00000000e+00)
37              	top_wall	(-2.72000904e-03 -1.55292161e-25 0.00000000e+00)	(-2.72000904e-03 -1.55292161e-25 0.00000000e+00)
37              	bot_wall	(-2.72000889e-03 -2.80320237e-19 0.00000000e+00)	(-2.72000889e-03 -2.80320237e-19 0.00000000e+00)
37.5            	top_wall	(-2.71435852e-03 -1.54641029e-25 0.00000000e+00)	(-2.71435852e-03 -1.54641029e-25 0.00000000e+00)
37.5            	bot_wall	(-2.71435838e-03 -2.17964431e-19 0.00000000e+00)	(-2.71435838e-03 -2.17964431e-19 0.00000000e+00)
38              	top_wall	(-2.70881283e-03 -1.61956181e-25 0.00000000e+00)	(-2.70881283e-03 -1.61956181e-25 0.00000000e+00)
38              	bot_wall	(-2.70881270e-03 -3.27854163e-19 0.00000000e+00)	(-2.70881270e-03 -3.27854163e-19 0.00000000e+00)
38.5            	top_wall	(-2.70336888e-03 -1.65811677e-25 0.00000000e+00)	(-2.70336888e-03 -1.65811677e-25 0.00000000e+00)
38.5            	bot_wall	(-2.70336874e-03 -4.19013186e-20 0.00000000e+00)	(-2.70336874e-03 -4.19013186e-20 0.00000000e+00)
39              	top_wall	(-2.69802369e-03 -1.69657891e-25 0.00000000e+00)	(-2.69802369e-03 -1.69657891e-25 0.00000000e+00)
39              	bot_wall	(-2.69802356e-03 -6.94627237e-20 0.00000000e+00)	(-2.69802356e-03 -6.94627237e-20 0.00000000e+00)
39.5            	top_wall	(-2.69277441e-03 -1.80848047e-25 0.00000000e+00)	(-2.69277441e-03 -1.80848047e-25 0.00000000e+00)
39.5            	bot_wall	(-2.69277428e-03 -1.97335474e-19 0.00000000e+00)	(-2.69277428e-03 -1.97335474e-19 0.00000000e+00)
40              	top_wall	(-2.68761832e-03 -1.91239060e-25 0.00000000e+00)	(-2.68761832e-03 -1.91239060e-25 0.00000000e+00)
40              	bot_wall	(-2.68761819e-03 -2.21481812e-19 0.00000000e+00)	(-2.68761819e-03 -2.21481812e-19 0.00000000e+00)
40.5            	top_wall	(-2.68255277e-03 -2.06700311e-25 0.00000000e+00)	(-2.68255277e-03 -2.06700311e-25 0.00000000e+00)
40.5            	bot_wall	(-2.68255265e-03 -3.88967150e-19 0.00000000e+00)	(-2.68255265e-03 -3.88967150e-19 0.00000000e+00)
41              	top_wall	(-2.67757527e-03 -2.26736257e-25 0.00000000e+00)	(-2.67757527e-03 -2.26736257e-25 0.00000000e+00)
41              	bot_wall	(-2.67757514e-03 -3.31567085e-19 0.00000000e+00)	(-2.67757514e-03 -3.31567085e-19 0.00000000e+00)
41.5            	top_wall	(-2.67268337e-03 -2.25939181e-25 0.00000000e+00)	(-2.67268337e-03 -2.25939181e-25 0.00000000e+00)
41.5            	bot_wall	(-2.67268325e-03 -4.56501925e-20 0.00000000e+00)	(-2.67268325e-03 -4.56501925e-20 0.00000000e+00)
42              	top_wall	(-2.66787491e-03 -2.21256697e-25 0.00000000e+00)	(-2.66787491e-03 -2.21256697e-25 0.00000000e+00)
42              	bot_wall	(-2.66787480e-03 -3.05199926e-19 0.00000000e+00)	(-2.66787480e-03 -3.05199926e-19 0.00000000e+00)
42.5            	top_wall	(-2.66314758e-03 -2.03320312e-25 0.00000000e+00)	(-2.66314758e-03 -2.03320312e-25 0.00000000e+00)
42.5            	bot_wall	(-2.66314747e-03 -2.30079188e-19 0.00000000e+00)	(-2.66314747e-03 -2.30079188e-19 0.00000000e+00)
43              	top_wall	(-2.65849914e-03 -1.92899492e-25 0.00000000e+00)	(-2.65849914e-03 -1.92899492e-25 0.00000000e+00)
43              	bot_wall	(-2.65849903e-03 -1.74487482e-19 0.00000000e+00)	(-2.65849903e-03 -1.74487482e-19 0.00000000e+00)
43.5            	top_wall	(-2.65392751e-03 -1.90117147e-25 0.00000000e+00)	(-2.65392751e-03 -1.90117147e-25 0.00000000e+00)
43.5            	bot_wall	(-2.65392740e-03 -1.89092559e-19 0.00000000e+00)	(-2.65392740e-03 -1.89092559e-19 0.00000000e+00)
44              	top_wall	(-2.64943069e-03 -1.99830402e-25 0.00000000e+00)	(-2.64943069e-03 -1.99830402e-25 0.00000000e+00)
44              	bot_wall	(-2.64943058e-03 -1.20668548e-19 0.00000000e+00)	(-2.64943058e-03 -1.20668548e-19 0.00000000e+00)
44.5            	top_wall	(-2.64500675e-03 -2.10912737e-25 0.00000000e+00)	(-2.64500675e-03 -2.10912737e-25 0.00000000e+00)
44.5            	bot_wall	(-2.64500664e-03 -1.33033076e-19 0.00000000e+00)	(-2.64500664e-03 -1.33033076e-19 0.00000000e+00)
45              	top_wall	(-2.64065382e-03 -2.06296680e-25 0.00000000e+00)	(-2.64065382e-03 -2.06296680e-25 0.00000000e+00)
45              	bot_wall	(-2.64065372e-03 -1.73812719e-19 0.00000000e+00)	(-2.64065372e-03 -1.73812719e-19 0.00000000e+00)
45.5            	top_wall	(-2.63637012e-03 -2.23678492e-25 0.00000000e+00)	(-2.63637012e-03 -2.23678492e-25 0.00000000e+00)
45.5            	bot_wall	(-2.63637002e-03 -2.43331262e-19 0.00000000e+00)	(-2.63637002e-03 -2.43331262e-19 0.00000000e+00)
46              	top_wall	(-2.63215390e-03 -2.51278868e-25 0.00000000e+00)	(-2.63215390e-03 -2.51278868e-25 0.00000000e+00)
46              	bot_wall	(-2.63215380e-03 -1.66110093e-19 0.00000000e+00)	(-2.63215380e-03 -1.66110093e-19 0.00000000e+00)
46.5            	top_wall	(-2.62800351e-03 -2.61226316e-25 0.00000000e+00)	(-2.62800351e-03 -2.61226316e-25 0.00000000e+00)
46.5            	bot_wall	(-2.62800341e-03 -2.90745898e-19 0.00000000e+00)	(-2.62800341e-03 -2.90745898e-19 0.00000000e+00)
47              	top_wall	(-2.62391732e-03 -2.75681208e-25 0.00000000e+00)	(-2.62391732e-03 -2.75681208e-25 0.00000000e+00)
47              	bot_wall	(-2.62391723e-03 -2.57003017e-19 0.00000000e+00)	(-2.62391723e-03 -2.57003017e-19 0.00000000e+00)
47.5            	top_wall	(-2.61989380e-03 -2.87701081e-25 0.00000000e+00)	(-2.61989380e-03 -2.87701081e-25 0.00000000e+00)
47.5            	bot_wall	(-2.61989370e-03 -4.12819126e-20 0.00000000e+00)	(-2.61989370e-03 -4.12819126e-20 0.00000000e+00)
48              	top_wall	(-2.61593143e-03 -3.01395155e-25 0.00000000e+00)	(-2.61593143e-03 -3.01395155e-25 0.00000000e+00)
48              	bot_wall	(-2.61593133e-03 -3.48083319e-19 0.00000000e+00)	(-2.61593133e-03 -3.48083319e-19 0.00000000e+00)
48.5            	top_wall	(-2.61202875e-03 -3.05125273e-25 0.00000000e+00)	(-2.61202875e-03 -3.05125273e-25 0.00000000e+00)
48.5            	bot_wall	(-2.61202866e-03 -1.74541081e-19 0.00000000e+00)	(-2.61202866e-03 -1.74541081e-19 0.00000000e+00)
49              	top_wall	(-2.60818438e-03 -3.11588122e-25 0.00000000e+00)	(-2.60818438e-03 -3.11588122e-25 0.00000000e+00)
49              	bot_wall	(-2.60818429e-03 -1.50085947e-19 0.00000000e+00)	(-2.60818429e-03 -1.50085947e-19 0.00000000e+00)
49.5            	top_wall	(-2.60439695e-03 -3.19306330e-25 0.00000000e+00)	(-2.60439695e-03 -3.19306330e-25 0.00000000e+00)
49.5            	bot_wall	(-2.60439686e-03 -2.87542578e-19 0.00000000e+00)	(-2.60439686e-03 -2.87542578e-19 0.00000000e+00)
50              	top_wall	(-2.60066525e-03 -3.07989749e-25 0.00000000e+00)	(-2.60066525e-03 -3.07989749e-25 0.00000000e+00)
50              	bot_wall	(-2.60066516e-03 -6.85153859e-20 0.00000000e+00)	(-2.60066516e-03 -6.85153859e-20 0.00000000e+00)
50.5            	top_wall	(-2.59698801e-03 -3.15293864e-25 0.00000000e+00)	(-2.59698801e-03 -3.15293864e-25 0.00000000e+00)
50.5            	bot_wall	(-2.59698792e-03 -1.73010663e-19 0.00000000e+00)	(-2.59698792e-03 -1.73010663e-19 0.00000000e+00)
51              	top_wall	(-2.59336388e-03 -3.19546527e-25 0.00000000e+00)	(-2.59336388e-03 -3.19546527e-25 0.00000000e+00)
51              	bot_wall	(-2.59336380e-03 7.53551073e-21 0.00000000e+00)	(-2.59336380e-03 7.53551073e-21 0.00000000e+00)
51.5            	top_wall	(-2.58979169e-03 -3.19625816e-25 0.00000000e+00)	(-2.58979169e-03 -3.19625816e-25 0.00000000e+00)
51.5            	bot_wall	(-2.58979160e-03 -2.60020798e-19 0.00000000e+00)	(-2.58979160e-03 -2.60020798e-19 0.00000000e+00)
52              	top_wall	(-2.58627025e-03 -3.27584196e-25 0.00000000e+00)	(-2.58627025e-03 -3.27584196e-25 0.00000000e+00)
52              	bot_wall	(-2.58627016e-03 -1.13102246e-19 0.00000000e+00)	(-2.58627016e-03 -1.13102246e-19 0.00000000e+00)
52.5            	top_wall	(-2.58279844e-03 -3.45117155e-25 0.00000000e+00)	(-2.58279844e-03 -3.45117155e-25 0.00000000e+00)
52.5            	bot_wall	(-2.58279836e-03 -1.71938585e-19 0.00000000e+00)	(-2.58279836e-03 -1.71938585e-19 0.00000000e+00)
53              	top_wall	(-2.57937519e-03 -3.53770077e-25 0.00000000e+00)	(-2.57937519e-03 -3.53770077e-25 0.00000000e+00)
53              	bot_wall	(-2.57937511e-03 -2.05492350e-19 0.00000000e+00)	(-2.57937511e-03 -2.05492350e-19 0.00000000e+00)
53.5            	top_wall	(-2.57599944e-03 -3.62557523e-25 0.00000000e+00)	(-2.57599944e-03 -3.62557523e-25 0.00000000e+00)
53.5            	bot_wall	(-2.57599937e-03 -2.56340566e-19 0.00000000e+00)	(-2.57599937e-03 -2.56340566e-19 0.00000000e+00)
54              	top_wall	(-2.57267018e-03 -3.76948112e-25 0.00000000e+00)	(-2.57267018e-03 -3.76948112e-25 0.00000000e+00)
54              	bot_wall	(-2.57267010e-03 -4.12508272e-20 0.00000000e+00)	(-2.57267010e-03 -4.12508272e-20 0.00000000e+00)
54.5            	top_wall	(-2.56938641e-03 -3.99887237e-25 0.00000000e+00)	(-2.56938641e-03 -3.99887237e-25 0.00000000e+00)
54.5            	bot_wall	(-2.56938633e-03 -2.18888281e-19 0.00000000e+00)	(-2.56938633e-03 -2.18888281e-19 0.00000000e+00)
55              	top_wall	(-2.56614717e-03 -4.06864013e-25 0.00000000e+00)	(-2.56614717e-03 -4.06864013e-25 0.00000000e+00)
55              	bot_wall	(-2.56614710e-03 -1.59209059e-19 0.00000000e+00)	(-2.56614710e-03 -1.59209059e-19 0.00000000e+00)
55.5            	top_wall	(-2.56295153e-03 -4.17098540e-25 0.00000000e+00)	(-2.56295153e-03 -4.17098540e-25 0.00000000e+00)
55.5            	bot_wall	(-2.56295146e-03 -2.83676734e-19 0.00000000e+00)	(-2.56295146e-03 -2.83676734e-19 0.00000000e+00)
56              	top_wall	(-2.55979859e-03 -4.28002727e-25 0.00000000e+00)	(-2.55979859e-03 -4.28002727e-25 0.00000000e+00)
56              	bot_wall	(-2.55979852e-03 -1.52795424e-19 0.00000000e+00)	(-2.55979852e-03 -1.52795424e-19 0.00000000e+00)
56.5            	top_wall	(-2.55668746e-03 -4.48750112e-25 0.00000000e+00)	(-2.55668746e-03 -4.48750112e-25 0.00000000e+00)
56.5            	bot_wall	(-2.55668739e-03 -2.34400649e-19 0.00000000e+00)	(-2.55668739e-03 -2.34400649e-19 0.00000000e+00)
57              	top_wall	(-2.55361730e-03 -4.62312333e-25 0.00000000e+00)	(-2.55361730e-03 -4.62312333e-25 0.00000000e+00)
57              	bot_wall	(-2.55361723e-03 -2.52043902e-19 0.00000000e+00)	(-2.55361723e-03 -2.52043902e-19 0.00000000e+00)
57.5            	top_wall	(-2.55058727e-03 -4.70609046e-25 0.00000000e+00)	(-2.55058727e-03 -4.70609046e-25 0.00000000e+00)
57.5            	bot_wall	(-2.55058720e-03 -6.67288257e-20 0.00000000e+00)	(-2.55058720e-03 -6.67288257e-20 0.00000000e+00)
58              	top_wall	(-2.54759656e-03 -4.84108220e-25 0.00000000e+00)	(-2.54759656e-03 -4.84108220e-25 0.00000000e+00)
58              	bot_wall	(-2.54759649e-03 3.27493061e-20 0.00000000e+00)	(-2.54759649e-03 3.27493061e-20 0.00000000e+00)
58.5            	top_wall	(-2.54464439e-03 -4.93055097e-25 0.00000000e+00)	(-2.54464439e-03 -4.93055097e-25 0.00000000e+00)
58.5            	bot_wall	(-2.54464433e-03 -5.72407851e-20 0.00000000e+00)	(-2.54464433e-03 -5.72407851e-20 0.00000000e+00)
59              	top_wall	(-2.54172999e-03 -5.08431176e-25 0.00000000e+00)	(-2.54172999e-03 -5.08431176e-25 0.00000000e+00)
59              	bot_wall	(-2.54172993e-03 -3.21318028e-19 0.00000000e+00)	(-2.54172993e-03 -3.21318028e-19 0.00000000e+00)
59.5            	top_wall	(-2.53885274e-03 -5.15661544e-25 0.00000000e+00)	(-2.53885274e-03 -5.15661544e-25 0.00000000e+00)
59.5            	bot_wall	(-2.53885267e-03 -1.97464754e-19 0.00000000e+00)	(-2.53885267e-03 -1.97464754e-19 0.00000000e+00)
60              	top_wall	(-2.53601189e-03 -5.37236753e-25 0.00000000e+00)	(-2.53601189e-03 -5.37236753e-25 0.00000000e+00)
60              	bot_wall	(-2.53601183e-03 -1.08613222e-19 0.00000000e+00)	(-2.53601183e-03 -1.08613222e-19 0.00000000e+00)
60.5            	top_wall	(-2.53320666e-03 -5.58729465e-25 0.00000000e+00)	(-2.53320666e-03 -5.58729465e-25 0.00000000e+00)