/*--------------------------------*- C++ -*----------------------------------*\
| =========                 |                                                 |
| \\      /  F ield         | OpenFOAM: The Open Source CFD Toolbox           |
|  \\    /   O peration     | Version:  2312                                  |
|   \\  /    A nd           | Website:  www.openfoam.com                      |
|    \\/     M anipulation  |                                                 |
\*---------------------------------------------------------------------------*/
FoamFile
{
    version     2.0;
    format      ascii;
    arch        "LSB;label=32;scalar=64";
    class       volScalarField;
    location    "8.925";
    object      k;
}
// * * * * * * * * * * * * * * * * * * * * * * * * * * * * * * * * * * * * * //

dimensions      [0 2 -2 0 0 0 0];

internalField   nonuniform List<scalar> 
500
(
0.00366919
0.00464451
0.0276639
0.0797982
0.13719
0.181249
0.211872
0.233073
0.248056
0.258898
0.266906
0.272915
0.277476
0.280957
0.283618
0.285642
0.287163
0.28828
0.28907
0.289591
0.289888
0.289997
0.289948
0.289762
0.289461
0.289059
0.28857
0.288004
0.287371
0.286679
0.285935
0.285144
0.284312
0.283442
0.282539
0.281606
0.280646
0.279661
0.278654
0.277627
0.276581
0.275518
0.27444
0.273348
0.272243
0.271126
0.269998
0.26886
0.267712
0.266556
0.265392
0.264221
0.263043
0.261858
0.260668
0.259472
0.258271
0.257066
0.255856
0.254643
0.253425
0.252204
0.25098
0.249753
0.248523
0.247291
0.246056
0.244819
0.24358
0.242339
0.241096
0.239852
0.238606
0.237359
0.23611
0.234861
0.233611
0.232359
0.231107
0.229854
0.228601
0.227347
0.226093
0.224838
0.223583
0.222328
0.221072
0.219817
0.218561
0.217306
0.216051
0.214796
0.213541
0.212287
0.211033
0.20978
0.208527
0.207274
0.206023
0.204772
0.203521
0.202272
0.201023
0.199776
0.198529
0.197284
0.196039
0.194796
0.193554
0.192313
0.191074
0.189836
0.1886
0.187365
0.186131
0.1849
0.18367
0.182442
0.181215
0.179991
0.178768
0.177548
0.17633
0.175114
0.1739
0.172688
0.171479
0.170273
0.169068
0.167867
0.166668
0.165472
0.164278
0.163088
0.1619
0.160716
0.159535
0.158357
0.157182
0.15601
0.154842
0.153678
0.152517
0.15136
0.150206
0.149057
0.147911
0.14677
0.145633
0.144499
0.143371
0.142246
0.141127
0.140012
0.138901
0.137796
0.136695
0.1356
0.134509
0.133424
0.132344
0.13127
0.130201
0.129138
0.128081
0.12703
0.125985
0.124946
0.123913
0.122887
0.121867
0.120854
0.119848
0.118849
0.117857
0.116871
0.115894
0.114924
0.113961
0.113006
0.112059
0.11112
0.110189
0.109267
0.108353
0.107447
0.106551
0.105663
0.104785
0.103915
0.103055
0.102205
0.101364
0.100534
0.0997129
0.0989024
0.0981024
0.0973128
0.096534
0.0957661
0.0950093
0.0942637
0.0935296
0.092807
0.0920962
0.0913974
0.0907107
0.0900363
0.0893744
0.0887252
0.0880888
0.0874654
0.0868552
0.0862585
0.0856752
0.0851057
0.0845502
0.0840087
0.0834814
0.0829686
0.0824704
0.081987
0.0815185
0.0810651
0.080627
0.0802043
0.0797971
0.0794057
0.0790301
0.0786706
0.0783272
0.0780001
0.0776894
0.0773952
0.0771177
0.076857
0.0766132
0.0763863
0.0761765
0.0759838
0.0758084
0.0756504
0.0755097
0.0753864
0.0752807
0.0751925
0.0751219
0.075069
0.0750336
0.075016
0.075016
0.0750336
0.075069
0.0751219
0.0751925
0.0752807
0.0753864
0.0755097
0.0756504
0.0758084
0.0759838
0.0761765
0.0763863
0.0766132
0.076857
0.0771177
0.0773952
0.0776894
0.0780001
0.0783272
0.0786706
0.0790302
0.0794057
0.0797971
0.0802043
0.080627
0.0810651
0.0815185
0.081987
0.0824705
0.0829686
0.0834815
0.0840087
0.0845502
0.0851058
0.0856752
0.0862585
0.0868553
0.0874654
0.0880888
0.0887252
0.0893744
0.0900363
0.0907107
0.0913974
0.0920963
0.092807
0.0935296
0.0942638
0.0950093
0.0957662
0.0965341
0.0973129
0.0981024
0.0989025
0.0997129
0.100534
0.101364
0.102205
0.103055
0.103915
0.104785
0.105663
0.106551
0.107447
0.108353
0.109267
0.110189
0.11112
0.112059
0.113006
0.113961
0.114924
0.115894
0.116871
0.117857
0.118849
0.119848
0.120854
0.121867
0.122887
0.123913
0.124946
0.125985
0.12703
0.128081
0.129138
0.130201
0.13127
0.132344
0.133424
0.134509
0.1356
0.136695
0.137796
0.138901
0.140012
0.141127
0.142247
0.143371
0.1445
0.145633
0.14677
0.147911
0.149057
0.150206
0.15136
0.152517
0.153678
0.154842
0.15601
0.157182
0.158357
0.159535
0.160716
0.161901
0.163088
0.164278
0.165472
0.166668
0.167867
0.169068
0.170273
0.171479
0.172688
0.1739
0.175114
0.17633
0.177548
0.178768
0.179991
0.181215
0.182442
0.18367
0.1849
0.186131
0.187365
0.1886
0.189836
0.191074
0.192313
0.193554
0.194796
0.196039
0.197284
0.198529
0.199776
0.201023
0.202272
0.203521
0.204772
0.206023
0.207274
0.208527
0.20978
0.211033
0.212287
0.213541
0.214796
0.216051
0.217306
0.218561
0.219817
0.221072
0.222328
0.223583
0.224838
0.226093
0.227347
0.228601
0.229854
0.231107
0.232359
0.233611
0.234861
0.23611
0.237359
0.238606
0.239852
0.241096
0.242339
0.24358
0.244819
0.246056
0.247291
0.248523
0.249753
0.25098
0.252204
0.253425
0.254643
0.255856
0.257066
0.258271
0.259472
0.260668
0.261858
0.263043
0.264221
0.265392
0.266556
0.267712
0.26886
0.269998
0.271126
0.272243
0.273348
0.27444
0.275518
0.276581
0.277627
0.278654
0.279661
0.280646
0.281606
0.282539
0.283442
0.284312
0.285144
0.285935
0.286679
0.287371
0.288004
0.28857
0.289059
0.289461
0.289762
0.289948
0.289997
0.289888
0.289591
0.28907
0.28828
0.287163
0.285642
0.283618
0.280957
0.277476
0.272915
0.266906
0.258898
0.248056
0.233073
0.211872
0.181249
0.13719
0.0797982
0.0276639
0.00464451
0.00366919
)
;

boundaryField
{
    top_wall
    {
        type            kLowReWallFunction;
        value           uniform 1.77423e-06;
    }
    inlet
    {
        type            cyclic;
    }
    bot_wall
    {
        type            kLowReWallFunction;
        value           uniform 1.77423e-06;
    }
    outlet
    {
        type            cyclic;
    }
    frontAndBack
    {
        type            empty;
    }
}


// ************************************************************************* //
