/*--------------------------------*- C++ -*----------------------------------*\
| =========                 |                                                 |
| \\      /  F ield         | OpenFOAM: The Open Source CFD Toolbox           |
|  \\    /   O peration     | Version:  2312                                  |
|   \\  /    A nd           | Website:  www.openfoam.com                      |
|    \\/     M anipulation  |                                                 |
\*---------------------------------------------------------------------------*/
FoamFile
{
    version     2.0;
    format      ascii;
    arch        "LSB;label=32;scalar=64";
    class       volScalarField;
    location    "8.925";
    object      nut;
}
// * * * * * * * * * * * * * * * * * * * * * * * * * * * * * * * * * * * * * //

dimensions      [0 2 -1 0 0 0 0];

internalField   nonuniform List<scalar> 
500
(
7.568e-09
5.33992e-08
8.31491e-07
4.18584e-06
1.05234e-05
1.87045e-05
2.79e-05
3.76891e-05
4.78454e-05
5.82342e-05
6.87697e-05
7.93938e-05
9.00656e-05
0.000100755
0.000111441
0.000122105
0.000132735
0.000143321
0.000153855
0.000164329
0.000174739
0.000185081
0.00019535
0.000205545
0.000215662
0.000225699
0.000235656
0.00024553
0.000255321
0.000265027
0.000274649
0.000284184
0.000293633
0.000302996
0.000312272
0.00032146
0.000330562
0.000339576
0.000348503
0.000357342
0.000366095
0.00037476
0.000383337
0.000391828
0.000400233
0.00040855
0.000416782
0.000424927
0.000432986
0.000440959
0.000448847
0.00045665
0.000464368
0.000472001
0.00047955
0.000487015
0.000494397
0.000501694
0.000508909
0.000516041
0.000523091
0.000530058
0.000536943
0.000543747
0.00055047
0.000557112
0.000563673
0.000570154
0.000576555
0.000582877
0.000589119
0.000595282
0.000601367
0.000607374
0.000613303
0.000619154
0.000624928
0.000630625
0.000636245
0.000641789
0.000647257
0.00065265
0.000657967
0.000663209
0.000668377
0.000673471
0.00067849
0.000683436
0.000688308
0.000693108
0.000697835
0.000702489
0.000707071
0.000711582
0.000716021
0.000720389
0.000724687
0.000728914
0.000733071
0.000737158
0.000741175
0.000745123
0.000749003
0.000752814
0.000756556
0.000760231
0.000763838
0.000767377
0.00077085
0.000774255
0.000777595
0.000780868
0.000784075
0.000787217
0.000790294
0.000793306
0.000796253
0.000799136
0.000801954
0.00080471
0.000807401
0.00081003
0.000812596
0.000815099
0.00081754
0.00081992
0.000822237
0.000824494
0.000826689
0.000828824
0.000830898
0.000832913
0.000834867
0.000836763
0.000838599
0.000840376
0.000842095
0.000843756
0.000845359
0.000846904
0.000848393
0.000849824
0.000851199
0.000852518
0.000853781
0.000854988
0.000856141
0.000857238
0.000858282
0.000859271
0.000860206
0.000861089
0.000861918
0.000862695
0.00086342
0.000864093
0.000864715
0.000865286
0.000865807
0.000866277
0.000866698
0.00086707
0.000867394
0.000867669
0.000867897
0.000868078
0.000868212
0.0008683
0.000868342
0.00086834
0.000868293
0.000868203
0.000868069
0.000867893
0.000867675
0.000867415
0.000867115
0.000866776
0.000866397
0.00086598
0.000865525
0.000865033
0.000864505
0.000863942
0.000863344
0.000862713
0.00086205
0.000861355
0.000860629
0.000859873
0.000859088
0.000858276
0.000857437
0.000856573
0.000855684
0.000854772
0.000853837
0.000852882
0.000851907
0.000850913
0.000849903
0.000848876
0.000847835
0.000846781
0.000845715
0.000844639
0.000843554
0.000842461
0.000841363
0.00084026
0.000839155
0.000838048
0.000836942
0.000835837
0.000834736
0.000833641
0.000832552
0.000831472
0.000830402
0.000829344
0.000828299
0.00082727
0.000826257
0.000825263
0.00082429
0.000823337
0.000822409
0.000821505
0.000820628
0.000819779
0.000818959
0.000818171
0.000817415
0.000816692
0.000816005
0.000815354
0.000814741
0.000814167
0.000813632
0.000813139
0.000812687
0.000812277
0.000811912
0.00081159
0.000811313
0.000811081
0.000810895
0.000810756
0.000810662
0.000810616
0.000810616
0.000810662
0.000810756
0.000810895
0.000811081
0.000811313
0.00081159
0.000811912
0.000812277
0.000812687
0.000813139
0.000813632
0.000814167
0.000814741
0.000815355
0.000816005
0.000816692
0.000817415
0.000818171
0.000818959
0.000819779
0.000820628
0.000821505
0.000822409
0.000823338
0.00082429
0.000825263
0.000826257
0.00082727
0.000828299
0.000829344
0.000830402
0.000831472
0.000832552
0.000833641
0.000834736
0.000835837
0.000836942
0.000838048
0.000839155
0.00084026
0.000841363
0.000842461
0.000843554
0.000844639
0.000845715
0.000846781
0.000847835
0.000848876
0.000849903
0.000850914
0.000851907
0.000852882
0.000853838
0.000854772
0.000855684
0.000856573
0.000857438
0.000858276
0.000859089
0.000859873
0.000860629
0.000861355
0.00086205
0.000862714
0.000863345
0.000863942
0.000864505
0.000865033
0.000865525
0.00086598
0.000866397
0.000866776
0.000867116
0.000867415
0.000867675
0.000867893
0.000868069
0.000868203
0.000868293
0.00086834
0.000868342
0.0008683
0.000868212
0.000868078
0.000867897
0.000867669
0.000867394
0.000867071
0.000866698
0.000866277
0.000865807
0.000865286
0.000864715
0.000864093
0.00086342
0.000862695
0.000861918
0.000861089
0.000860207
0.000859271
0.000858282
0.000857239
0.000856141
0.000854988
0.000853781
0.000852518
0.000851199
0.000849824
0.000848393
0.000846905
0.000845359
0.000843756
0.000842095
0.000840376
0.000838599
0.000836763
0.000834868
0.000832913
0.000830899
0.000828824
0.000826689
0.000824494
0.000822237
0.00081992
0.00081754
0.000815099
0.000812596
0.00081003
0.000807401
0.00080471
0.000801954
0.000799136
0.000796253
0.000793306
0.000790294
0.000787217
0.000784075
0.000780868
0.000777595
0.000774255
0.00077085
0.000767377
0.000763838
0.000760231
0.000756556
0.000752814
0.000749003
0.000745123
0.000741175
0.000737158
0.000733071
0.000728914
0.000724687
0.00072039
0.000716021
0.000711582
0.000707071
0.000702489
0.000697835
0.000693108
0.000688308
0.000683436
0.00067849
0.000673471
0.000668377
0.000663209
0.000657967
0.00065265
0.000647257
0.000641789
0.000636245
0.000630625
0.000624928
0.000619154
0.000613303
0.000607374
0.000601367
0.000595282
0.000589119
0.000582877
0.000576555
0.000570154
0.000563673
0.000557112
0.00055047
0.000543747
0.000536943
0.000530058
0.000523091
0.000516041
0.000508909
0.000501694
0.000494397
0.000487015
0.00047955
0.000472001
0.000464368
0.00045665
0.000448847
0.000440959
0.000432986
0.000424927
0.000416782
0.00040855
0.000400233
0.000391828
0.000383337
0.00037476
0.000366095
0.000357342
0.000348503
0.000339576
0.000330562
0.00032146
0.000312272
0.000302996
0.000293633
0.000284184
0.000274649
0.000265027
0.000255321
0.00024553
0.000235656
0.000225699
0.000215662
0.000205545
0.00019535
0.000185081
0.000174739
0.000164329
0.000153855
0.000143321
0.000132735
0.000122105
0.000111441
0.000100755
9.00656e-05
7.93938e-05
6.87697e-05
5.82342e-05
4.78454e-05
3.76892e-05
2.79e-05
1.87045e-05
1.05234e-05
4.18584e-06
8.31491e-07
5.33992e-08
7.568e-09
)
;

boundaryField
{
    top_wall
    {
        type            nutLowReWallFunction;
        value           uniform 0;
    }
    inlet
    {
        type            cyclic;
    }
    bot_wall
    {
        type            nutLowReWallFunction;
        value           uniform 0;
    }
    outlet
    {
        type            cyclic;
    }
    frontAndBack
    {
        type            empty;
    }
}


// ************************************************************************* //
