/*--------------------------------*- C++ -*----------------------------------*\
| =========                 |                                                 |
| \\      /  F ield         | OpenFOAM: The Open Source CFD Toolbox           |
|  \\    /   O peration     | Version:  2312                                  |
|   \\  /    A nd           | Website:  www.openfoam.com                      |
|    \\/     M anipulation  |                                                 |
\*---------------------------------------------------------------------------*/
FoamFile
{
    version     2.0;
    format      ascii;
    arch        "LSB;label=32;scalar=64";
    class       volVectorField;
    location    "8.925";
    object      U;
}
// * * * * * * * * * * * * * * * * * * * * * * * * * * * * * * * * * * * * * //

dimensions      [0 1 -1 0 0 0 0];

internalField   nonuniform List<vector> 
500
(
(0.346136 -3.83211e-18 0)
(1.03428 -6.31554e-18 0)
(1.70157 -6.77432e-18 0)
(2.28843 -6.33108e-18 0)
(2.74707 -6.2733e-18 0)
(3.09246 -6.2858e-18 0)
(3.35873 -6.28775e-18 0)
(3.57141 -6.2984e-18 0)
(3.74675 -6.31434e-18 0)
(3.89508 -6.33615e-18 0)
(4.02314 -6.35698e-18 0)
(4.13556 -6.37409e-18 0)
(4.23557 -6.38844e-18 0)
(4.32556 -6.39845e-18 0)
(4.40726 -6.40567e-18 0)
(4.48205 -6.41125e-18 0)
(4.55096 -6.41612e-18 0)
(4.61483 -6.41892e-18 0)
(4.67432 -6.41726e-18 0)
(4.73 -6.41699e-18 0)
(4.7823 -6.47022e-18 0)
(4.83161 -6.51769e-18 0)
(4.87824 -6.5136e-18 0)
(4.92247 -6.49969e-18 0)
(4.96453 -6.48542e-18 0)
(5.00462 -6.4688e-18 0)
(5.04291 -6.44247e-18 0)
(5.07956 -6.42724e-18 0)
(5.11469 -6.41855e-18 0)
(5.14843 -6.41337e-18 0)
(5.18089 -6.41109e-18 0)
(5.21215 -6.41525e-18 0)
(5.2423 -6.39378e-18 0)
(5.27141 -6.38132e-18 0)
(5.29956 -6.40667e-18 0)
(5.3268 -6.42847e-18 0)
(5.35319 -6.42815e-18 0)
(5.37878 -6.49274e-18 0)
(5.40362 -6.5539e-18 0)
(5.42775 -6.55134e-18 0)
(5.45121 -6.567e-18 0)
(5.47404 -6.57745e-18 0)
(5.49626 -6.58509e-18 0)
(5.51791 -6.58998e-18 0)
(5.53901 -6.59249e-18 0)
(5.5596 -6.59277e-18 0)
(5.57969 -6.59123e-18 0)
(5.59932 -6.58803e-18 0)
(5.61849 -6.58354e-18 0)
(5.63723 -6.57787e-18 0)
(5.65557 -6.5713e-18 0)
(5.67351 -6.5641e-18 0)
(5.69107 -6.55649e-18 0)
(5.70826 -6.54845e-18 0)
(5.72511 -6.54014e-18 0)
(5.74163 -6.5317e-18 0)
(5.75782 -6.52321e-18 0)
(5.7737 -6.51477e-18 0)
(5.78928 -6.50641e-18 0)
(5.80457 -6.49818e-18 0)
(5.81959 -6.49012e-18 0)
(5.83433 -6.48224e-18 0)
(5.84882 -6.47454e-18 0)
(5.86305 -6.46704e-18 0)
(5.87704 -6.45973e-18 0)
(5.8908 -6.45258e-18 0)
(5.90432 -6.4456e-18 0)
(5.91763 -6.43874e-18 0)
(5.93072 -6.432e-18 0)
(5.9436 -6.42533e-18 0)
(5.95628 -6.41871e-18 0)
(5.96877 -6.4121e-18 0)
(5.98106 -6.40547e-18 0)
(5.99317 -6.39876e-18 0)
(6.0051 -6.39195e-18 0)
(6.01685 -6.38499e-18 0)
(6.02843 -6.37782e-18 0)
(6.03985 -6.37055e-18 0)
(6.0511 -6.36315e-18 0)
(6.06219 -6.35557e-18 0)
(6.07313 -6.3478e-18 0)
(6.08392 -6.33982e-18 0)
(6.09457 -6.3316e-18 0)
(6.10507 -6.32315e-18 0)
(6.11543 -6.31445e-18 0)
(6.12565 -6.30552e-18 0)
(6.13574 -6.29639e-18 0)
(6.1457 -6.28712e-18 0)
(6.15553 -6.27778e-18 0)
(6.16523 -6.26848e-18 0)
(6.17481 -6.25938e-18 0)
(6.18428 -6.25051e-18 0)
(6.19362 -6.24211e-18 0)
(6.20285 -6.23448e-18 0)
(6.21197 -6.2278e-18 0)
(6.22098 -6.22249e-18 0)
(6.22988 -6.21887e-18 0)
(6.23867 -6.21735e-18 0)
(6.24736 -6.21842e-18 0)
(6.25595 -6.22252e-18 0)
(6.26443 -6.23028e-18 0)
(6.27282 -6.24225e-18 0)
(6.28111 -6.25888e-18 0)
(6.28931 -6.28077e-18 0)
(6.29741 -6.30815e-18 0)
(6.30542 -6.34113e-18 0)
(6.31334 -6.38057e-18 0)
(6.32117 -6.41922e-18 0)
(6.32891 -6.42068e-18 0)
(6.33657 -6.42002e-18 0)
(6.34414 -6.4582e-18 0)
(6.35163 -6.5045e-18 0)
(6.35904 -6.55144e-18 0)
(6.36636 -6.60026e-18 0)
(6.37361 -6.65144e-18 0)
(6.38078 -6.70587e-18 0)
(6.38787 -6.76465e-18 0)
(6.39488 -6.8291e-18 0)
(6.40182 -6.83383e-18 0)
(6.40869 -6.83526e-18 0)
(6.41548 -6.87396e-18 0)
(6.4222 -6.91079e-18 0)
(6.42884 -6.97418e-18 0)
(6.43542 -7.0373e-18 0)
(6.44193 -7.08872e-18 0)
(6.44837 -7.13115e-18 0)
(6.45474 -7.16621e-18 0)
(6.46104 -7.1957e-18 0)
(6.46728 -7.2215e-18 0)
(6.47345 -7.24561e-18 0)
(6.47956 -7.27177e-18 0)
(6.48561 -7.2787e-18 0)
(6.49159 -7.19743e-18 0)
(6.49751 -7.12217e-18 0)
(6.50336 -7.14661e-18 0)
(6.50916 -7.19643e-18 0)
(6.51489 -7.22429e-18 0)
(6.52056 -7.16698e-18 0)
(6.52618 -7.10391e-18 0)
(6.53173 -7.11326e-18 0)
(6.53723 -7.13601e-18 0)
(6.54267 -7.14004e-18 0)
(6.54805 -7.06069e-18 0)
(6.55338 -6.98066e-18 0)
(6.55865 -6.98311e-18 0)
(6.56386 -7.00314e-18 0)
(6.56902 -7.02299e-18 0)
(6.57412 -7.04622e-18 0)
(6.57917 -7.05908e-18 0)
(6.58416 -7.07717e-18 0)
(6.5891 -7.09427e-18 0)
(6.59399 -7.10421e-18 0)
(6.59882 -7.12244e-18 0)
(6.6036 -7.13523e-18 0)
(6.60833 -7.14472e-18 0)
(6.61301 -7.15213e-18 0)
(6.61763 -7.15351e-18 0)
(6.6222 -7.13156e-18 0)
(6.62673 -7.08992e-18 0)
(6.6312 -7.03805e-18 0)
(6.63562 -6.95651e-18 0)
(6.63999 -6.8784e-18 0)
(6.64431 -6.78384e-18 0)
(6.64858 -6.70516e-18 0)
(6.65281 -6.67787e-18 0)
(6.65698 -6.59653e-18 0)
(6.6611 -6.49105e-18 0)
(6.66518 -6.43204e-18 0)
(6.66921 -6.39143e-18 0)
(6.67318 -6.34447e-18 0)
(6.67711 -6.29467e-18 0)
(6.681 -6.22449e-18 0)
(6.68483 -6.16254e-18 0)
(6.68862 -6.13066e-18 0)
(6.69235 -6.09646e-18 0)
(6.69605 -6.06146e-18 0)
(6.69969 -6.005e-18 0)
(6.70329 -5.94231e-18 0)
(6.70683 -5.88087e-18 0)
(6.71034 -5.82941e-18 0)
(6.71379 -5.80069e-18 0)
(6.7172 -5.76104e-18 0)
(6.72056 -5.71704e-18 0)
(6.72388 -5.65443e-18 0)
(6.72714 -5.6007e-18 0)
(6.73036 -5.57503e-18 0)
(6.73354 -5.55108e-18 0)
(6.73667 -5.53072e-18 0)
(6.73975 -5.49331e-18 0)
(6.74278 -5.45342e-18 0)
(6.74577 -5.41004e-18 0)
(6.74871 -5.43628e-18 0)
(6.7516 -5.48476e-18 0)
(6.75445 -5.46763e-18 0)
(6.75725 -5.4487e-18 0)
(6.76001 -5.40202e-18 0)
(6.76271 -5.34743e-18 0)
(6.76538 -5.31447e-18 0)
(6.76799 -5.2843e-18 0)
(6.77056 -5.24402e-18 0)
(6.77307 -5.17764e-18 0)
(6.77555 -5.06845e-18 0)
(6.77797 -4.98535e-18 0)
(6.78035 -4.95205e-18 0)
(6.78268 -4.91152e-18 0)
(6.78496 -4.84845e-18 0)
(6.7872 -4.78797e-18 0)
(6.78939 -4.73479e-18 0)
(6.79153 -4.68926e-18 0)
(6.79362 -4.6464e-18 0)
(6.79566 -4.58006e-18 0)
(6.79765 -4.50549e-18 0)
(6.7996 -4.43582e-18 0)
(6.8015 -4.45936e-18 0)
(6.80335 -4.50262e-18 0)
(6.80515 -4.4797e-18 0)
(6.8069 -4.44809e-18 0)
(6.8086 -4.3888e-18 0)
(6.81026 -4.33563e-18 0)
(6.81186 -4.30657e-18 0)
(6.81341 -4.26754e-18 0)
(6.81492 -4.21601e-18 0)
(6.81637 -4.14928e-18 0)
(6.81777 -4.09869e-18 0)
(6.81913 -4.05684e-18 0)
(6.82043 -4.01706e-18 0)
(6.82168 -3.99646e-18 0)
(6.82289 -3.97669e-18 0)
(6.82404 -3.95433e-18 0)
(6.82514 -3.9093e-18 0)
(6.82618 -3.87371e-18 0)
(6.82718 -3.8588e-18 0)
(6.82813 -3.84047e-18 0)
(6.82902 -3.89199e-18 0)
(6.82986 -3.91368e-18 0)
(6.83065 -3.85041e-18 0)
(6.83139 -3.80184e-18 0)
(6.83208 -3.75789e-18 0)
(6.83271 -3.71344e-18 0)
(6.83329 -3.64887e-18 0)
(6.83382 -3.59199e-18 0)
(6.83429 -3.54248e-18 0)
(6.83472 -3.4496e-18 0)
(6.83509 -3.36509e-18 0)
(6.83541 -3.30925e-18 0)
(6.83567 -3.20074e-18 0)
(6.83588 -3.06396e-18 0)
(6.83604 -2.94575e-18 0)
(6.83615 -2.83327e-18 0)
(6.8362 -2.73136e-18 0)
(6.8362 -2.68072e-18 0)
(6.83615 -2.64223e-18 0)
(6.83604 -2.64177e-18 0)
(6.83588 -2.62172e-18 0)
(6.83567 -2.52645e-18 0)
(6.83541 -2.47367e-18 0)
(6.83509 -2.4484e-18 0)
(6.83472 -2.46547e-18 0)
(6.83429 -2.38325e-18 0)
(6.83382 -2.22859e-18 0)
(6.83329 -2.17008e-18 0)
(6.83271 -2.14037e-18 0)
(6.83208 -2.08941e-18 0)
(6.83139 -1.98123e-18 0)
(6.83065 -1.86069e-18 0)
(6.82986 -1.79322e-18 0)
(6.82902 -1.75434e-18 0)
(6.82813 -1.69021e-18 0)
(6.82718 -1.54363e-18 0)
(6.82618 -1.40557e-18 0)
(6.82514 -1.3359e-18 0)
(6.82404 -1.28841e-18 0)
(6.82289 -1.23057e-18 0)
(6.82168 -1.13991e-18 0)
(6.82043 -1.05201e-18 0)
(6.81913 -9.83745e-19 0)
(6.81777 -9.47591e-19 0)
(6.81637 -9.31464e-19 0)
(6.81492 -9.08492e-19 0)
(6.81341 -9.43307e-19 0)
(6.81186 -9.55252e-19 0)
(6.81026 -8.53172e-19 0)
(6.8086 -7.67185e-19 0)
(6.8069 -7.24641e-19 0)
(6.80515 -6.83046e-19 0)
(6.80335 -6.18888e-19 0)
(6.8015 -6.17018e-19 0)
(6.7996 -6.23455e-19 0)
(6.79765 -5.78457e-19 0)
(6.79566 -5.61137e-19 0)
(6.79362 -5.43518e-19 0)
(6.79153 -5.17672e-19 0)
(6.78939 -4.73464e-19 0)
(6.7872 -5.03481e-19 0)
(6.78496 -5.49867e-19 0)
(6.78268 -5.15235e-19 0)
(6.78035 -4.70781e-19 0)
(6.77797 -4.10649e-19 0)
(6.77555 -4.29109e-19 0)
(6.77307 -4.44425e-19 0)
(6.77056 -3.81239e-19 0)
(6.76799 -3.39793e-19 0)
(6.76538 -3.0399e-19 0)
(6.76271 -2.75368e-19 0)
(6.76001 -2.27888e-19 0)
(6.75725 -1.29824e-19 0)
(6.75445 -6.16368e-20 0)
(6.7516 -5.16961e-20 0)
(6.74871 -3.64252e-20 0)
(6.74577 1.81822e-20 0)
(6.74278 1.10856e-19 0)
(6.73975 2.15291e-19 0)
(6.73667 2.65396e-19 0)
(6.73354 2.44001e-19 0)
(6.73036 2.14936e-19 0)
(6.72714 1.92523e-19 0)
(6.72388 1.7314e-19 0)
(6.72056 1.55371e-19 0)
(6.7172 1.38529e-19 0)
(6.71379 1.22304e-19 0)
(6.71034 1.06668e-19 0)
(6.70683 9.16675e-20 0)
(6.70329 7.73761e-20 0)
(6.69969 6.39311e-20 0)
(6.69605 5.13536e-20 0)
(6.69235 3.97285e-20 0)
(6.68862 2.90366e-20 0)
(6.68483 1.9286e-20 0)
(6.681 1.04006e-20 0)
(6.67711 2.34722e-21 0)
(6.67318 -4.91609e-21 0)
(6.66921 -1.14928e-20 0)
(6.66518 -1.74244e-20 0)
(6.6611 -2.28073e-20 0)
(6.65698 -2.76723e-20 0)
(6.65281 -3.20975e-20 0)
(6.64858 -3.61547e-20 0)
(6.64431 -3.98501e-20 0)
(6.63999 -4.32396e-20 0)
(6.63562 -4.63702e-20 0)
(6.6312 -4.92809e-20 0)
(6.62673 -5.20048e-20 0)
(6.6222 -5.45693e-20 0)
(6.61763 -5.69979e-20 0)
(6.61301 -5.93106e-20 0)
(6.60833 -6.14646e-20 0)
(6.6036 -6.35288e-20 0)
(6.59882 -6.55143e-20 0)
(6.59399 -6.74348e-20 0)
(6.5891 -6.92459e-20 0)
(6.58416 -7.09606e-20 0)
(6.57917 -7.25893e-20 0)
(6.57412 -7.41401e-20 0)
(6.56902 -7.56196e-20 0)
(6.56386 -7.70327e-20 0)
(6.55865 -7.83834e-20 0)
(6.55338 -7.96746e-20 0)
(6.54805 -8.09083e-20 0)
(6.54267 -8.2086e-20 0)
(6.53723 -8.32087e-20 0)
(6.53173 -8.42768e-20 0)
(6.52618 -8.52904e-20 0)
(6.52056 -8.62495e-20 0)
(6.51489 -8.71539e-20 0)
(6.50916 -8.8003e-20 0)
(6.50336 -8.87963e-20 0)
(6.49751 -8.95334e-20 0)
(6.49159 -9.02135e-20 0)
(6.48561 -9.08362e-20 0)
(6.47956 -9.14009e-20 0)
(6.47345 -9.19072e-20 0)
(6.46728 -9.23546e-20 0)
(6.46104 -9.27428e-20 0)
(6.45474 -9.30718e-20 0)
(6.44837 -9.33413e-20 0)
(6.44193 -9.35514e-20 0)
(6.43542 -9.37023e-20 0)
(6.42884 -9.37942e-20 0)
(6.4222 -9.38276e-20 0)
(6.41548 -9.38028e-20 0)
(6.40869 -9.37207e-20 0)
(6.40182 -9.35818e-20 0)
(6.39488 -9.33871e-20 0)
(6.38787 -9.31376e-20 0)
(6.38078 -9.28343e-20 0)
(6.37361 -9.24783e-20 0)
(6.36636 -9.20709e-20 0)
(6.35904 -9.16134e-20 0)
(6.35163 -9.11073e-20 0)
(6.34414 -9.05541e-20 0)
(6.33657 -8.99551e-20 0)
(6.32891 -8.93121e-20 0)
(6.32117 -8.86266e-20 0)
(6.31334 -8.79004e-20 0)
(6.30542 -8.71352e-20 0)
(6.29741 -8.63326e-20 0)
(6.28931 -8.54944e-20 0)
(6.28111 -8.46224e-20 0)
(6.27282 -8.37184e-20 0)
(6.26443 -8.27841e-20 0)
(6.25595 -8.18214e-20 0)
(6.24736 -8.08319e-20 0)
(6.23867 -7.98174e-20 0)
(6.22988 -7.87797e-20 0)
(6.22098 -7.77205e-20 0)
(6.21197 -7.66415e-20 0)
(6.20285 -7.55443e-20 0)
(6.19362 -7.44306e-20 0)
(6.18428 -7.33019e-20 0)
(6.17481 -7.21599e-20 0)
(6.16523 -7.10061e-20 0)
(6.15553 -6.98419e-20 0)
(6.1457 -6.86688e-20 0)
(6.13574 -6.74882e-20 0)
(6.12565 -6.63014e-20 0)
(6.11543 -6.51099e-20 0)
(6.10507 -6.39147e-20 0)
(6.09457 -6.27173e-20 0)
(6.08392 -6.15187e-20 0)
(6.07313 -6.03201e-20 0)
(6.06219 -5.91226e-20 0)
(6.0511 -5.79272e-20 0)
(6.03985 -5.67349e-20 0)
(6.02843 -5.55467e-20 0)
(6.01685 -5.43635e-20 0)
(6.0051 -5.31861e-20 0)
(5.99317 -5.20154e-20 0)
(5.98106 -5.08522e-20 0)
(5.96877 -4.96972e-20 0)
(5.95628 -4.8551e-20 0)
(5.9436 -4.74145e-20 0)
(5.93072 -4.62881e-20 0)
(5.91763 -4.51725e-20 0)
(5.90432 -4.40683e-20 0)
(5.8908 -4.29759e-20 0)
(5.87704 -4.18959e-20 0)
(5.86305 -4.08287e-20 0)
(5.84882 -3.97748e-20 0)
(5.83433 -3.87345e-20 0)
(5.81959 -3.77082e-20 0)
(5.80457 -3.66963e-20 0)
(5.78928 -3.5699e-20 0)
(5.7737 -3.47168e-20 0)
(5.75782 -3.37498e-20 0)
(5.74163 -3.27983e-20 0)
(5.72511 -3.18626e-20 0)
(5.70826 -3.09428e-20 0)
(5.69107 -3.00391e-20 0)
(5.67351 -2.91518e-20 0)
(5.65557 -2.82809e-20 0)
(5.63723 -2.74267e-20 0)
(5.61849 -2.65892e-20 0)
(5.59932 -2.57686e-20 0)
(5.57969 -2.49649e-20 0)
(5.5596 -2.41783e-20 0)
(5.53901 -2.34088e-20 0)
(5.51791 -2.26565e-20 0)
(5.49626 -2.19214e-20 0)
(5.47404 -2.12036e-20 0)
(5.45121 -2.05031e-20 0)
(5.42775 -1.98199e-20 0)
(5.40362 -1.9154e-20 0)
(5.37879 -1.85054e-20 0)
(5.35319 -1.78741e-20 0)
(5.3268 -1.726e-20 0)
(5.29956 -1.66632e-20 0)
(5.27141 -1.60835e-20 0)
(5.2423 -1.55209e-20 0)
(5.21215 -1.49752e-20 0)
(5.18089 -1.44464e-20 0)
(5.14843 -1.39344e-20 0)
(5.11469 -1.34389e-20 0)
(5.07956 -1.29598e-20 0)
(5.04291 -1.24969e-20 0)
(5.00462 -1.20498e-20 0)
(4.96453 -1.16185e-20 0)
(4.92247 -1.12024e-20 0)
(4.87824 -1.08012e-20 0)
(4.83161 -1.04144e-20 0)
(4.7823 -1.00416e-20 0)
(4.73 -9.68205e-21 0)
(4.67432 -9.33503e-21 0)
(4.61483 -8.99965e-21 0)
(4.55096 -8.67487e-21 0)
(4.48205 -8.35941e-21 0)
(4.40726 -8.05168e-21 0)
(4.32556 -7.74975e-21 0)
(4.23557 -7.45114e-21 0)
(4.13556 -7.15271e-21 0)
(4.02314 -6.85027e-21 0)
(3.89508 -6.5382e-21 0)
(3.74675 -6.20863e-21 0)
(3.57141 -5.85022e-21 0)
(3.35873 -5.4459e-21 0)
(3.09246 -4.96923e-21 0)
(2.74707 -4.3792e-21 0)
(2.28843 -3.62208e-21 0)
(1.70157 -2.67612e-21 0)
(1.03428 -1.61801e-21 0)
(0.346136 -5.38805e-22 0)
)
;

boundaryField
{
    top_wall
    {
        type            noSlip;
    }
    inlet
    {
        type            cyclic;
    }
    bot_wall
    {
        type            noSlip;
    }
    outlet
    {
        type            cyclic;
    }
    frontAndBack
    {
        type            empty;
    }
}


// ************************************************************************* //
