/*--------------------------------*- C++ -*----------------------------------*\
| =========                 |                                                 |
| \\      /  F ield         | OpenFOAM: The Open Source CFD Toolbox           |
|  \\    /   O peration     | Version:  2312                                  |
|   \\  /    A nd           | Website:  www.openfoam.com                      |
|    \\/     M anipulation  |                                                 |
\*---------------------------------------------------------------------------*/
FoamFile
{
    version     2.0;
    format      ascii;
    arch        "LSB;label=32;scalar=64";
    class       volScalarField;
    location    "13.785";
    object      k;
}
// * * * * * * * * * * * * * * * * * * * * * * * * * * * * * * * * * * * * * //

dimensions      [0 2 -2 0 0 0 0];

internalField   nonuniform List<scalar> 
1000
(
0.00551796
0.00525007
0.00539812
0.00547314
0.00551434
0.00553808
0.00555158
0.00555852
0.00556096
0.00556019
0.00555702
0.00555202
0.00554558
0.00553799
0.00552946
0.00552015
0.00551019
0.00549968
0.0054887
0.00547731
0.00546556
0.00545349
0.00544115
0.00542856
0.00541574
0.00540272
0.00538952
0.00537615
0.00536263
0.00534897
0.00533518
0.00532126
0.00530724
0.00529311
0.00527888
0.00526456
0.00525016
0.00523567
0.00522111
0.00520648
0.00519177
0.00517701
0.00516218
0.00514729
0.00513235
0.00511735
0.00510231
0.00508721
0.00507208
0.0050569
0.00504167
0.00502641
0.00501111
0.00499578
0.00498041
0.00496501
0.00494958
0.00493412
0.00491864
0.00490313
0.00488759
0.00487203
0.00485645
0.00484085
0.00482524
0.0048096
0.00479395
0.00477828
0.0047626
0.00474691
0.00473121
0.0047155
0.00469978
0.00468405
0.00466832
0.00465258
0.00463683
0.00462109
0.00460534
0.00458959
0.00457384
0.00455809
0.00454235
0.00452661
0.00451087
0.00449514
0.00447942
0.0044637
0.00444799
0.0044323
0.00441661
0.00440094
0.00438527
0.00436962
0.00435399
0.00433837
0.00432277
0.00430718
0.00429162
0.00427607
0.00426054
0.00424504
0.00422955
0.00421409
0.00419865
0.00418324
0.00416785
0.00415249
0.00413715
0.00412184
0.00410656
0.00409131
0.00407609
0.0040609
0.00404575
0.00403062
0.00401553
0.00400047
0.00398545
0.00397046
0.0039555
0.00394059
0.00392571
0.00391087
0.00389606
0.0038813
0.00386658
0.00385189
0.00383725
0.00382265
0.00380809
0.00379358
0.00377911
0.00376468
0.0037503
0.00373596
0.00372167
0.00370742
0.00369322
0.00367907
0.00366496
0.00365091
0.0036369
0.00362294
0.00360903
0.00359517
0.00358137
0.00356761
0.0035539
0.00354025
0.00352665
0.0035131
0.0034996
0.00348616
0.00347277
0.00345943
0.00344615
0.00343292
0.00341975
0.00340664
0.00339358
0.00338057
0.00336762
0.00335473
0.0033419
0.00332912
0.0033164
0.00330374
0.00329113
0.00327858
0.0032661
0.00325367
0.0032413
0.00322898
0.00321673
0.00320454
0.0031924
0.00318033
0.00316832
0.00315636
0.00314447
0.00313264
0.00312086
0.00310915
0.0030975
0.00308591
0.00307438
0.00306292
0.00305151
0.00304017
0.00302889
0.00301767
0.00300651
0.00299541
0.00298438
0.0029734
0.00296249
0.00295165
0.00294086
0.00293014
0.00291948
0.00290888
0.00289835
0.00288787
0.00287746
0.00286712
0.00285683
0.00284661
0.00283645
0.00282636
0.00281632
0.00280635
0.00279645
0.0027866
0.00277682
0.0027671
0.00275745
0.00274785
0.00273832
0.00272886
0.00271945
0.00271011
0.00270084
0.00269162
0.00268247
0.00267338
0.00266435
0.00265539
0.00264649
0.00263765
0.00262887
0.00262016
0.00261151
0.00260292
0.00259439
0.00258593
0.00257753
0.00256919
0.00256091
0.0025527
0.00254455
0.00253645
0.00252842
0.00252046
0.00251255
0.00250471
0.00249692
0.0024892
0.00248154
0.00247394
0.00246641
0.00245893
0.00245151
0.00244416
0.00243686
0.00242963
0.00242245
0.00241534
0.00240829
0.00240129
0.00239436
0.00238749
0.00238067
0.00237392
0.00236722
0.00236059
0.00235401
0.00234749
0.00234103
0.00233463
0.00232829
0.002322
0.00231578
0.00230961
0.0023035
0.00229745
0.00229145
0.00228551
0.00227963
0.0022738
0.00226804
0.00226232
0.00225667
0.00225107
0.00224552
0.00224003
0.0022346
0.00222922
0.0022239
0.00221863
0.00221341
0.00220825
0.00220314
0.00219809
0.00219309
0.00218814
0.00218325
0.00217841
0.00217362
0.00216889
0.0021642
0.00215957
0.00215499
0.00215046
0.00214598
0.00214155
0.00213717
0.00213284
0.00212856
0.00212433
0.00212015
0.00211602
0.00211193
0.0021079
0.00210391
0.00209997
0.00209608
0.00209223
0.00208843
0.00208468
0.00208098
0.00207732
0.0020737
0.00207013
0.00206661
0.00206312
0.00205969
0.00205629
0.00205295
0.00204964
0.00204638
0.00204315
0.00203998
0.00203684
0.00203374
0.00203069
0.00202767
0.0020247
0.00202177
0.00201887
0.00201602
0.0020132
0.00201043
0.00200769
0.00200499
0.00200233
0.0019997
0.00199711
0.00199456
0.00199205
0.00198957
0.00198712
0.00198472
0.00198234
0.00198
0.0019777
0.00197543
0.00197319
0.00197099
0.00196881
0.00196668
0.00196457
0.00196249
0.00196045
0.00195844
0.00195645
0.0019545
0.00195258
0.00195069
0.00194883
0.00194699
0.00194519
0.00194341
0.00194167
0.00193995
0.00193825
0.00193659
0.00193495
0.00193334
0.00193175
0.00193019
0.00192865
0.00192715
0.00192566
0.0019242
0.00192276
0.00192135
0.00191996
0.0019186
0.00191726
0.00191594
0.00191464
0.00191337
0.00191212
0.00191088
0.00190967
0.00190849
0.00190732
0.00190617
0.00190504
0.00190394
0.00190285
0.00190178
0.00190073
0.0018997
0.00189869
0.0018977
0.00189673
0.00189577
0.00189483
0.00189391
0.001893
0.00189212
0.00189125
0.00189039
0.00188955
0.00188873
0.00188793
0.00188713
0.00188636
0.0018856
0.00188485
0.00188412
0.00188341
0.00188271
0.00188202
0.00188134
0.00188068
0.00188004
0.0018794
0.00187878
0.00187818
0.00187758
0.001877
0.00187643
0.00187587
0.00187533
0.00187479
0.00187427
0.00187376
0.00187326
0.00187278
0.0018723
0.00187184
0.00187138
0.00187094
0.00187051
0.00187008
0.00186967
0.00186927
0.00186888
0.00186849
0.00186812
0.00186776
0.0018674
0.00186706
0.00186672
0.0018664
0.00186608
0.00186577
0.00186548
0.00186519
0.0018649
0.00186463
0.00186437
0.00186411
0.00186386
0.00186362
0.00186339
0.00186317
0.00186295
0.00186275
0.00186255
0.00186235
0.00186217
0.00186199
0.00186182
0.00186166
0.00186151
0.00186136
0.00186122
0.00186109
0.00186096
0.00186085
0.00186073
0.00186063
0.00186053
0.00186044
0.00186036
0.00186029
0.00186022
0.00186016
0.0018601
0.00186005
0.00186001
0.00185998
0.00185995
0.00185993
0.00185992
0.00185991
0.00185991
0.00185992
0.00185993
0.00185995
0.00185998
0.00186001
0.00186005
0.0018601
0.00186015
0.00186022
0.00186028
0.00186036
0.00186044
0.00186053
0.00186063
0.00186073
0.00186084
0.00186096
0.00186109
0.00186122
0.00186136
0.0018615
0.00186166
0.00186182
0.00186199
0.00186217
0.00186235
0.00186254
0.00186274
0.00186295
0.00186317
0.00186339
0.00186362
0.00186386
0.00186411
0.00186436
0.00186463
0.0018649
0.00186518
0.00186547
0.00186577
0.00186608
0.0018664
0.00186672
0.00186706
0.0018674
0.00186776
0.00186812
0.00186849
0.00186887
0.00186927
0.00186967
0.00187008
0.0018705
0.00187094
0.00187138
0.00187183
0.0018723
0.00187278
0.00187326
0.00187376
0.00187427
0.00187479
0.00187533
0.00187587
0.00187643
0.001877
0.00187758
0.00187817
0.00187878
0.0018794
0.00188003
0.00188068
0.00188134
0.00188202
0.0018827
0.0018834
0.00188412
0.00188485
0.0018856
0.00188636
0.00188713
0.00188792
0.00188873
0.00188955
0.00189039
0.00189124
0.00189211
0.001893
0.00189391
0.00189483
0.00189577
0.00189672
0.0018977
0.00189869
0.0018997
0.00190073
0.00190178
0.00190285
0.00190393
0.00190504
0.00190617
0.00190732
0.00190848
0.00190967
0.00191088
0.00191211
0.00191336
0.00191464
0.00191593
0.00191725
0.0019186
0.00191996
0.00192135
0.00192276
0.0019242
0.00192566
0.00192714
0.00192865
0.00193019
0.00193175
0.00193333
0.00193494
0.00193658
0.00193825
0.00193994
0.00194166
0.00194341
0.00194519
0.00194699
0.00194882
0.00195069
0.00195258
0.0019545
0.00195645
0.00195843
0.00196044
0.00196249
0.00196456
0.00196667
0.00196881
0.00197098
0.00197319
0.00197542
0.00197769
0.00198
0.00198234
0.00198471
0.00198712
0.00198956
0.00199204
0.00199456
0.00199711
0.0019997
0.00200232
0.00200499
0.00200769
0.00201043
0.0020132
0.00201602
0.00201887
0.00202176
0.0020247
0.00202767
0.00203069
0.00203374
0.00203684
0.00203997
0.00204315
0.00204637
0.00204964
0.00205294
0.00205629
0.00205969
0.00206312
0.0020666
0.00207013
0.0020737
0.00207731
0.00208098
0.00208468
0.00208843
0.00209223
0.00209608
0.00209997
0.00210391
0.0021079
0.00211193
0.00211602
0.00212015
0.00212433
0.00212856
0.00213284
0.00213717
0.00214155
0.00214598
0.00215046
0.00215499
0.00215957
0.0021642
0.00216889
0.00217362
0.00217841
0.00218325
0.00218815
0.00219309
0.00219809
0.00220315
0.00220825
0.00221341
0.00221863
0.0022239
0.00222922
0.0022346
0.00224003
0.00224552
0.00225107
0.00225667
0.00226232
0.00226804
0.00227381
0.00227963
0.00228551
0.00229145
0.00229745
0.0023035
0.00230961
0.00231578
0.00232201
0.00232829
0.00233463
0.00234103
0.00234749
0.00235401
0.00236059
0.00236723
0.00237392
0.00238068
0.00238749
0.00239436
0.0024013
0.00240829
0.00241534
0.00242246
0.00242963
0.00243686
0.00244416
0.00245151
0.00245893
0.00246641
0.00247395
0.00248154
0.0024892
0.00249693
0.00250471
0.00251255
0.00252046
0.00252843
0.00253646
0.00254455
0.0025527
0.00256092
0.00256919
0.00257753
0.00258593
0.0025944
0.00260292
0.00261151
0.00262016
0.00262888
0.00263765
0.00264649
0.00265539
0.00266436
0.00267338
0.00268247
0.00269162
0.00270084
0.00271012
0.00271946
0.00272886
0.00273833
0.00274786
0.00275745
0.0027671
0.00277682
0.0027866
0.00279645
0.00280635
0.00281632
0.00282636
0.00283645
0.00284661
0.00285683
0.00286712
0.00287746
0.00288787
0.00289835
0.00290888
0.00291948
0.00293014
0.00294086
0.00295165
0.0029625
0.00297341
0.00298438
0.00299541
0.00300651
0.00301767
0.00302889
0.00304017
0.00305151
0.00306292
0.00307439
0.00308591
0.0030975
0.00310915
0.00312087
0.00313264
0.00314447
0.00315636
0.00316832
0.00318033
0.00319241
0.00320454
0.00321673
0.00322899
0.0032413
0.00325367
0.0032661
0.00327859
0.00329113
0.00330374
0.0033164
0.00332912
0.0033419
0.00335473
0.00336762
0.00338057
0.00339358
0.00340664
0.00341975
0.00343293
0.00344615
0.00345943
0.00347277
0.00348616
0.0034996
0.0035131
0.00352665
0.00354025
0.0035539
0.00356761
0.00358137
0.00359518
0.00360903
0.00362294
0.0036369
0.00365091
0.00366496
0.00367907
0.00369322
0.00370742
0.00372167
0.00373596
0.0037503
0.00376468
0.00377911
0.00379358
0.00380809
0.00382265
0.00383725
0.00385189
0.00386658
0.0038813
0.00389606
0.00391087
0.00392571
0.00394059
0.0039555
0.00397046
0.00398545
0.00400047
0.00401553
0.00403062
0.00404575
0.00406091
0.00407609
0.00409131
0.00410657
0.00412184
0.00413715
0.00415249
0.00416785
0.00418324
0.00419865
0.00421409
0.00422955
0.00424504
0.00426054
0.00427607
0.00429162
0.00430719
0.00432277
0.00433837
0.00435399
0.00436962
0.00438527
0.00440094
0.00441661
0.0044323
0.00444799
0.0044637
0.00447942
0.00449514
0.00451087
0.00452661
0.00454235
0.00455809
0.00457384
0.00458959
0.00460534
0.00462109
0.00463683
0.00465258
0.00466832
0.00468405
0.00469978
0.0047155
0.00473121
0.00474691
0.0047626
0.00477828
0.00479395
0.0048096
0.00482524
0.00484085
0.00485645
0.00487203
0.00488759
0.00490313
0.00491864
0.00493412
0.00494958
0.00496501
0.00498041
0.00499578
0.00501111
0.00502641
0.00504167
0.0050569
0.00507208
0.00508721
0.00510231
0.00511735
0.00513235
0.00514729
0.00516218
0.005177
0.00519177
0.00520647
0.00522111
0.00523567
0.00525016
0.00526456
0.00527888
0.00529311
0.00530724
0.00532126
0.00533517
0.00534897
0.00536263
0.00537615
0.00538952
0.00540272
0.00541574
0.00542856
0.00544115
0.00545349
0.00546556
0.00547731
0.0054887
0.00549968
0.00551019
0.00552015
0.00552946
0.00553799
0.00554558
0.00555202
0.00555702
0.00556019
0.00556096
0.00555852
0.00555158
0.00553808
0.00551434
0.00547314
0.00539812
0.00525007
0.00551796
)
;

boundaryField
{
    top_wall
    {
        type            kLowReWallFunction;
        value           uniform 0.0035684;
    }
    inlet
    {
        type            cyclic;
    }
    bot_wall
    {
        type            kLowReWallFunction;
        value           uniform 0.0035684;
    }
    outlet
    {
        type            cyclic;
    }
    frontAndBack
    {
        type            empty;
    }
}


// ************************************************************************* //
