/*--------------------------------*- C++ -*----------------------------------*\
| =========                 |                                                 |
| \\      /  F ield         | OpenFOAM: The Open Source CFD Toolbox           |
|  \\    /   O peration     | Version:  2312                                  |
|   \\  /    A nd           | Website:  www.openfoam.com                      |
|    \\/     M anipulation  |                                                 |
\*---------------------------------------------------------------------------*/
FoamFile
{
    version     2.0;
    format      ascii;
    arch        "LSB;label=32;scalar=64";
    class       volScalarField;
    location    "13.785";
    object      nut;
}
// * * * * * * * * * * * * * * * * * * * * * * * * * * * * * * * * * * * * * //

dimensions      [0 2 -1 0 0 0 0];

internalField   nonuniform List<scalar> 
1000
(
1.6681e-05
3.98389e-05
7.11833e-05
0.000104221
0.000137731
0.000171284
0.000204689
0.000237856
0.000270733
0.000303295
0.000335526
0.000367418
0.000398966
0.000430169
0.000461028
0.000491542
0.000521715
0.000551548
0.000581045
0.000610208
0.000639041
0.000667547
0.000695729
0.000723591
0.000751136
0.000778368
0.00080529
0.000831905
0.000858218
0.000884231
0.000909948
0.000935373
0.000960508
0.000985357
0.00100992
0.00103421
0.00105822
0.00108196
0.00110543
0.00112863
0.00115157
0.00117424
0.00119666
0.00121883
0.00124074
0.0012624
0.00128382
0.001305
0.00132593
0.00134663
0.00136709
0.00138732
0.00140732
0.0014271
0.00144665
0.00146597
0.00148508
0.00150398
0.00152265
0.00154112
0.00155938
0.00157743
0.00159527
0.00161291
0.00163036
0.0016476
0.00166465
0.0016815
0.00169816
0.00171464
0.00173092
0.00174702
0.00176294
0.00177867
0.00179422
0.0018096
0.0018248
0.00183983
0.00185468
0.00186936
0.00188388
0.00189822
0.0019124
0.00192642
0.00194027
0.00195396
0.0019675
0.00198087
0.00199409
0.00200716
0.00202007
0.00203283
0.00204544
0.0020579
0.00207021
0.00208237
0.00209439
0.00210627
0.002118
0.00212959
0.00214104
0.00215235
0.00216352
0.00217456
0.00218546
0.00219622
0.00220685
0.00221735
0.00222771
0.00223795
0.00224805
0.00225803
0.00226788
0.0022776
0.00228719
0.00229666
0.002306
0.00231522
0.00232432
0.00233329
0.00234215
0.00235088
0.0023595
0.00236799
0.00237637
0.00238462
0.00239276
0.00240079
0.0024087
0.00241649
0.00242417
0.00243174
0.00243919
0.00244653
0.00245376
0.00246088
0.00246788
0.00247478
0.00248157
0.00248825
0.00249481
0.00250128
0.00250763
0.00251388
0.00252002
0.00252605
0.00253198
0.00253781
0.00254353
0.00254914
0.00255465
0.00256006
0.00256537
0.00257058
0.00257568
0.00258068
0.00258559
0.00259039
0.00259509
0.0025997
0.0026042
0.00260861
0.00261292
0.00261713
0.00262124
0.00262526
0.00262918
0.00263301
0.00263675
0.00264038
0.00264393
0.00264738
0.00265074
0.002654
0.00265718
0.00266026
0.00266325
0.00266616
0.00266897
0.00267169
0.00267432
0.00267687
0.00267933
0.0026817
0.00268398
0.00268618
0.0026883
0.00269032
0.00269227
0.00269413
0.00269591
0.0026976
0.00269921
0.00270075
0.0027022
0.00270357
0.00270486
0.00270608
0.00270721
0.00270827
0.00270925
0.00271016
0.00271099
0.00271175
0.00271243
0.00271304
0.00271358
0.00271404
0.00271444
0.00271477
0.00271502
0.00271521
0.00271533
0.00271538
0.00271537
0.00271529
0.00271515
0.00271494
0.00271467
0.00271434
0.00271394
0.00271349
0.00271298
0.00271241
0.00271178
0.00271109
0.00271035
0.00270955
0.00270869
0.00270779
0.00270683
0.00270582
0.00270476
0.00270365
0.00270249
0.00270128
0.00270002
0.00269872
0.00269737
0.00269598
0.00269455
0.00269307
0.00269155
0.00268999
0.00268839
0.00268675
0.00268508
0.00268336
0.00268161
0.00267983
0.00267801
0.00267616
0.00267427
0.00267236
0.00267041
0.00266843
0.00266643
0.0026644
0.00266234
0.00266025
0.00265814
0.002656
0.00265385
0.00265166
0.00264946
0.00264724
0.002645
0.00264273
0.00264045
0.00263816
0.00263584
0.00263351
0.00263117
0.00262881
0.00262644
0.00262406
0.00262167
0.00261926
0.00261685
0.00261442
0.00261199
0.00260955
0.0026071
0.00260465
0.00260219
0.00259973
0.00259726
0.00259479
0.00259232
0.00258985
0.00258737
0.0025849
0.00258242
0.00257995
0.00257747
0.002575
0.00257253
0.00257007
0.00256761
0.00256515
0.00256269
0.00256025
0.00255781
0.00255537
0.00255294
0.00255052
0.00254811
0.00254571
0.00254331
0.00254093
0.00253855
0.00253619
0.00253383
0.00253149
0.00252916
0.00252684
0.00252453
0.00252224
0.00251995
0.00251769
0.00251543
0.00251319
0.00251096
0.00250875
0.00250655
0.00250437
0.0025022
0.00250005
0.00249791
0.00249579
0.00249369
0.0024916
0.00248953
0.00248748
0.00248544
0.00248342
0.00248142
0.00247944
0.00247747
0.00247552
0.00247359
0.00247168
0.00246978
0.00246791
0.00246605
0.00246421
0.00246239
0.00246059
0.0024588
0.00245703
0.00245529
0.00245356
0.00245185
0.00245016
0.00244849
0.00244683
0.0024452
0.00244358
0.00244198
0.00244041
0.00243885
0.0024373
0.00243578
0.00243428
0.00243279
0.00243133
0.00242988
0.00242845
0.00242703
0.00242564
0.00242426
0.00242291
0.00242157
0.00242025
0.00241894
0.00241765
0.00241639
0.00241513
0.0024139
0.00241268
0.00241148
0.0024103
0.00240914
0.00240799
0.00240686
0.00240574
0.00240464
0.00240356
0.00240249
0.00240144
0.00240041
0.00239939
0.00239838
0.0023974
0.00239642
0.00239547
0.00239453
0.0023936
0.00239269
0.00239179
0.00239091
0.00239004
0.00238918
0.00238834
0.00238752
0.00238671
0.00238591
0.00238512
0.00238435
0.00238359
0.00238285
0.00238211
0.00238139
0.00238069
0.00237999
0.00237931
0.00237864
0.00237798
0.00237734
0.00237671
0.00237608
0.00237547
0.00237487
0.00237429
0.00237371
0.00237315
0.00237259
0.00237205
0.00237151
0.00237099
0.00237048
0.00236998
0.00236949
0.00236901
0.00236853
0.00236807
0.00236762
0.00236718
0.00236674
0.00236632
0.00236591
0.0023655
0.0023651
0.00236472
0.00236434
0.00236397
0.0023636
0.00236325
0.00236291
0.00236257
0.00236224
0.00236192
0.00236161
0.00236131
0.00236101
0.00236072
0.00236044
0.00236017
0.0023599
0.00235964
0.00235939
0.00235915
0.00235891
0.00235868
0.00235846
0.00235824
0.00235803
0.00235783
0.00235764
0.00235745
0.00235726
0.00235709
0.00235692
0.00235676
0.0023566
0.00235645
0.00235631
0.00235617
0.00235604
0.00235592
0.0023558
0.00235569
0.00235558
0.00235548
0.00235539
0.0023553
0.00235522
0.00235515
0.00235508
0.00235501
0.00235495
0.0023549
0.00235486
0.00235482
0.00235478
0.00235475
0.00235473
0.00235471
0.0023547
0.0023547
0.0023547
0.0023547
0.00235471
0.00235473
0.00235475
0.00235478
0.00235482
0.00235486
0.0023549
0.00235496
0.00235501
0.00235508
0.00235515
0.00235522
0.00235531
0.00235539
0.00235549
0.00235559
0.00235569
0.0023558
0.00235592
0.00235605
0.00235618
0.00235631
0.00235646
0.00235661
0.00235676
0.00235692
0.00235709
0.00235727
0.00235745
0.00235764
0.00235783
0.00235803
0.00235824
0.00235846
0.00235868
0.00235891
0.00235915
0.00235939
0.00235964
0.0023599
0.00236017
0.00236044
0.00236072
0.00236101
0.00236131
0.00236161
0.00236192
0.00236224
0.00236257
0.00236291
0.00236325
0.00236361
0.00236397
0.00236434
0.00236472
0.00236511
0.0023655
0.00236591
0.00236632
0.00236675
0.00236718
0.00236762
0.00236807
0.00236854
0.00236901
0.00236949
0.00236998
0.00237048
0.00237099
0.00237152
0.00237205
0.00237259
0.00237315
0.00237371
0.00237429
0.00237488
0.00237548
0.00237609
0.00237671
0.00237734
0.00237799
0.00237864
0.00237931
0.00238
0.00238069
0.0023814
0.00238212
0.00238285
0.00238359
0.00238435
0.00238512
0.00238591
0.00238671
0.00238752
0.00238835
0.00238919
0.00239004
0.00239091
0.00239179
0.00239269
0.0023936
0.00239453
0.00239547
0.00239643
0.0023974
0.00239839
0.00239939
0.00240041
0.00240145
0.0024025
0.00240356
0.00240465
0.00240574
0.00240686
0.00240799
0.00240914
0.00241031
0.00241149
0.00241269
0.00241391
0.00241514
0.00241639
0.00241766
0.00241895
0.00242025
0.00242157
0.00242291
0.00242427
0.00242565
0.00242704
0.00242845
0.00242988
0.00243133
0.0024328
0.00243428
0.00243579
0.00243731
0.00243885
0.00244041
0.00244199
0.00244359
0.0024452
0.00244684
0.00244849
0.00245016
0.00245185
0.00245356
0.00245529
0.00245704
0.0024588
0.00246059
0.00246239
0.00246421
0.00246605
0.00246791
0.00246979
0.00247168
0.00247359
0.00247552
0.00247747
0.00247944
0.00248142
0.00248343
0.00248544
0.00248748
0.00248953
0.0024916
0.00249369
0.00249579
0.00249791
0.00250005
0.0025022
0.00250437
0.00250655
0.00250875
0.00251096
0.00251319
0.00251543
0.00251768
0.00251995
0.00252223
0.00252453
0.00252684
0.00252916
0.00253149
0.00253383
0.00253619
0.00253855
0.00254093
0.00254331
0.00254571
0.00254811
0.00255052
0.00255294
0.00255537
0.0025578
0.00256024
0.00256269
0.00256514
0.0025676
0.00257006
0.00257253
0.002575
0.00257747
0.00257994
0.00258242
0.00258489
0.00258737
0.00258984
0.00259232
0.00259479
0.00259726
0.00259973
0.00260219
0.00260465
0.0026071
0.00260954
0.00261198
0.00261442
0.00261684
0.00261926
0.00262166
0.00262405
0.00262644
0.00262881
0.00263117
0.00263351
0.00263584
0.00263815
0.00264045
0.00264273
0.00264499
0.00264723
0.00264946
0.00265166
0.00265384
0.002656
0.00265813
0.00266024
0.00266233
0.00266439
0.00266642
0.00266843
0.0026704
0.00267235
0.00267427
0.00267615
0.002678
0.00267982
0.00268161
0.00268336
0.00268507
0.00268675
0.00268839
0.00268999
0.00269155
0.00269306
0.00269454
0.00269598
0.00269737
0.00269872
0.00270002
0.00270127
0.00270248
0.00270364
0.00270475
0.00270581
0.00270682
0.00270778
0.00270869
0.00270954
0.00271034
0.00271108
0.00271177
0.0027124
0.00271297
0.00271349
0.00271394
0.00271433
0.00271466
0.00271493
0.00271514
0.00271529
0.00271536
0.00271538
0.00271532
0.00271521
0.00271502
0.00271476
0.00271444
0.00271404
0.00271358
0.00271304
0.00271243
0.00271174
0.00271099
0.00271016
0.00270925
0.00270827
0.00270721
0.00270607
0.00270486
0.00270357
0.0027022
0.00270074
0.00269921
0.0026976
0.0026959
0.00269413
0.00269227
0.00269032
0.00268829
0.00268618
0.00268398
0.0026817
0.00267933
0.00267687
0.00267432
0.00267169
0.00266897
0.00266615
0.00266325
0.00266026
0.00265718
0.002654
0.00265074
0.00264738
0.00264393
0.00264038
0.00263674
0.00263301
0.00262918
0.00262526
0.00262124
0.00261713
0.00261291
0.00260861
0.0026042
0.00259969
0.00259509
0.00259039
0.00258559
0.00258068
0.00257568
0.00257058
0.00256537
0.00256006
0.00255465
0.00254914
0.00254352
0.0025378
0.00253198
0.00252605
0.00252002
0.00251388
0.00250763
0.00250128
0.00249481
0.00248824
0.00248157
0.00247478
0.00246788
0.00246088
0.00245376
0.00244653
0.00243919
0.00243174
0.00242417
0.00241649
0.0024087
0.00240079
0.00239276
0.00238462
0.00237636
0.00236799
0.00235949
0.00235088
0.00234215
0.00233329
0.00232432
0.00231522
0.002306
0.00229666
0.00228719
0.0022776
0.00226788
0.00225803
0.00224805
0.00223795
0.00222771
0.00221735
0.00220685
0.00219622
0.00218546
0.00217456
0.00216352
0.00215235
0.00214104
0.00212959
0.002118
0.00210627
0.00209439
0.00208237
0.00207021
0.0020579
0.00204544
0.00203283
0.00202007
0.00200716
0.00199409
0.00198087
0.0019675
0.00195396
0.00194027
0.00192642
0.0019124
0.00189822
0.00188388
0.00186936
0.00185468
0.00183983
0.0018248
0.0018096
0.00179422
0.00177867
0.00176294
0.00174702
0.00173092
0.00171464
0.00169816
0.0016815
0.00166465
0.0016476
0.00163036
0.00161291
0.00159527
0.00157743
0.00155938
0.00154112
0.00152265
0.00150398
0.00148508
0.00146597
0.00144665
0.0014271
0.00140732
0.00138732
0.00136709
0.00134663
0.00132593
0.001305
0.00128382
0.0012624
0.00124074
0.00121883
0.00119666
0.00117424
0.00115157
0.00112863
0.00110543
0.00108196
0.00105822
0.00103421
0.00100992
0.000985357
0.000960508
0.000935373
0.000909948
0.000884231
0.000858218
0.000831905
0.00080529
0.000778368
0.000751136
0.000723591
0.000695729
0.000667547
0.000639041
0.000610208
0.000581045
0.000551548
0.000521715
0.000491542
0.000461028
0.000430169
0.000398966
0.000367418
0.000335526
0.000303295
0.000270733
0.000237856
0.000204689
0.000171284
0.000137731
0.000104221
7.11833e-05
3.98389e-05
1.6681e-05
)
;

boundaryField
{
    top_wall
    {
        type            nutLowReWallFunction;
        value           uniform 0;
    }
    inlet
    {
        type            cyclic;
    }
    bot_wall
    {
        type            nutLowReWallFunction;
        value           uniform 0;
    }
    outlet
    {
        type            cyclic;
    }
    frontAndBack
    {
        type            empty;
    }
}


// ************************************************************************* //
