/*--------------------------------*- C++ -*----------------------------------*\
| =========                 |                                                 |
| \\      /  F ield         | OpenFOAM: The Open Source CFD Toolbox           |
|  \\    /   O peration     | Version:  2312                                  |
|   \\  /    A nd           | Website:  www.openfoam.com                      |
|    \\/     M anipulation  |                                                 |
\*---------------------------------------------------------------------------*/
FoamFile
{
    version     2.0;
    format      ascii;
    arch        "LSB;label=32;scalar=64";
    class       volScalarField;
    location    "20.92";
    object      k;
}
// * * * * * * * * * * * * * * * * * * * * * * * * * * * * * * * * * * * * * //

dimensions      [0 2 -2 0 0 0 0];

internalField   nonuniform List<scalar> 
1000
(
0.00383882
0.00402871
0.0238537
0.0777779
0.161623
0.249461
0.324014
0.382576
0.428176
0.463626
0.491345
0.513236
0.530724
0.544862
0.556426
0.565993
0.573994
0.580751
0.586502
0.591417
0.595633
0.599258
0.602379
0.605069
0.607387
0.609381
0.611094
0.61256
0.613809
0.614865
0.61575
0.616482
0.617079
0.617553
0.617917
0.618182
0.618357
0.618451
0.61847
0.618422
0.618313
0.618147
0.61793
0.617666
0.617357
0.617009
0.616624
0.616205
0.615755
0.615276
0.614769
0.614238
0.613683
0.613107
0.612511
0.611896
0.611264
0.610616
0.609953
0.609276
0.608586
0.607883
0.607169
0.606445
0.60571
0.604966
0.604214
0.603453
0.602684
0.601909
0.601126
0.600338
0.599543
0.598743
0.597938
0.597128
0.596313
0.595494
0.594672
0.593845
0.593015
0.592181
0.591345
0.590505
0.589663
0.588818
0.587971
0.587122
0.58627
0.585417
0.584562
0.583705
0.582846
0.581986
0.581125
0.580262
0.579398
0.578533
0.577666
0.576799
0.575931
0.575062
0.574192
0.573321
0.572449
0.571577
0.570705
0.569831
0.568958
0.568083
0.567208
0.566333
0.565458
0.564581
0.563705
0.562828
0.561951
0.561074
0.560196
0.559318
0.55844
0.557562
0.556683
0.555804
0.554925
0.554046
0.553167
0.552287
0.551407
0.550528
0.549647
0.548767
0.547887
0.547006
0.546126
0.545245
0.544364
0.543482
0.542601
0.541719
0.540838
0.539956
0.539074
0.538192
0.537309
0.536426
0.535544
0.534661
0.533777
0.532894
0.53201
0.531126
0.530242
0.529358
0.528473
0.527588
0.526703
0.525818
0.524932
0.524046
0.52316
0.522273
0.521386
0.520499
0.519611
0.518723
0.517835
0.516946
0.516057
0.515168
0.514278
0.513388
0.512497
0.511606
0.510715
0.509823
0.50893
0.508037
0.507144
0.50625
0.505356
0.50446
0.503562
0.502661
0.501757
0.50085
0.49994
0.499026
0.498108
0.497186
0.496261
0.495333
0.494401
0.493465
0.492526
0.491583
0.490637
0.489688
0.488735
0.487779
0.486819
0.485856
0.48489
0.48392
0.482947
0.481971
0.480991
0.480009
0.479022
0.478033
0.477039
0.476043
0.475043
0.47404
0.473033
0.472023
0.47101
0.469993
0.468972
0.467948
0.466921
0.46589
0.464855
0.463818
0.462776
0.461731
0.460682
0.45963
0.458575
0.457515
0.456452
0.455386
0.454316
0.453242
0.452165
0.451084
0.449999
0.448911
0.447819
0.446724
0.445625
0.444522
0.443415
0.442305
0.441191
0.440073
0.438952
0.437827
0.436698
0.435566
0.43443
0.43329
0.432146
0.430999
0.429847
0.428693
0.427534
0.426372
0.425205
0.424035
0.422862
0.421684
0.420503
0.419318
0.418129
0.416937
0.41574
0.41454
0.413336
0.412129
0.410917
0.409702
0.408483
0.40726
0.406033
0.404802
0.403568
0.40233
0.401088
0.399842
0.398592
0.397339
0.396082
0.394821
0.393556
0.392287
0.391014
0.389738
0.388458
0.387174
0.385886
0.384594
0.383298
0.381999
0.380695
0.379388
0.378077
0.376763
0.375444
0.374121
0.372795
0.371465
0.370131
0.368793
0.367451
0.366106
0.364757
0.363404
0.362047
0.360686
0.359322
0.357953
0.356581
0.355205
0.353825
0.35244
0.351051
0.349658
0.34826
0.346857
0.34545
0.344037
0.34262
0.341198
0.339773
0.338343
0.336911
0.335477
0.334043
0.332611
0.331183
0.329762
0.328351
0.326954
0.325573
0.324212
0.322872
0.321551
0.320244
0.318941
0.317639
0.31634
0.315042
0.313745
0.312451
0.311158
0.309868
0.308579
0.307293
0.30601
0.304728
0.303449
0.302173
0.300899
0.299628
0.298359
0.297094
0.295832
0.294572
0.293316
0.292062
0.290812
0.289566
0.288323
0.287083
0.285847
0.284614
0.283385
0.28216
0.280938
0.279721
0.278507
0.277298
0.276093
0.274892
0.273695
0.272502
0.271314
0.27013
0.268951
0.267776
0.266607
0.265442
0.264281
0.263126
0.261975
0.26083
0.25969
0.258555
0.257425
0.2563
0.255181
0.254067
0.252959
0.251857
0.25076
0.249669
0.248583
0.247504
0.24643
0.245363
0.244302
0.243246
0.242198
0.241155
0.240119
0.239089
0.238066
0.237049
0.236039
0.235036
0.23404
0.233051
0.232068
0.231093
0.230124
0.229163
0.228209
0.227263
0.226324
0.225392
0.224468
0.223552
0.222643
0.221742
0.220849
0.219963
0.219086
0.218217
0.217356
0.216503
0.215658
0.214822
0.213994
0.213175
0.212364
0.211562
0.210769
0.209984
0.209208
0.208442
0.207684
0.206936
0.206197
0.205467
0.204748
0.20404
0.203342
0.202657
0.201983
0.20132
0.200669
0.200029
0.199402
0.198786
0.198183
0.197591
0.197012
0.196445
0.19589
0.195348
0.194818
0.194301
0.193796
0.193304
0.192825
0.192359
0.191906
0.191466
0.191039
0.190625
0.190225
0.189837
0.189463
0.189103
0.188756
0.188422
0.188102
0.187796
0.187503
0.187224
0.186959
0.186707
0.186469
0.186246
0.186036
0.18584
0.185657
0.185489
0.185335
0.185195
0.185068
0.184956
0.184858
0.184774
0.184704
0.184648
0.184606
0.184577
0.184563
0.184563
0.184578
0.184606
0.184648
0.184704
0.184774
0.184858
0.184956
0.185068
0.185195
0.185335
0.185489
0.185657
0.18584
0.186036
0.186246
0.18647
0.186707
0.186959
0.187224
0.187503
0.187796
0.188102
0.188422
0.188756
0.189103
0.189464
0.189838
0.190225
0.190625
0.191039
0.191466
0.191906
0.192359
0.192826
0.193305
0.193796
0.194301
0.194818
0.195348
0.19589
0.196445
0.197012
0.197591
0.198183
0.198787
0.199402
0.20003
0.200669
0.20132
0.201983
0.202657
0.203343
0.20404
0.204748
0.205468
0.206197
0.206936
0.207685
0.208442
0.209209
0.209984
0.210769
0.211562
0.212364
0.213175
0.213995
0.214822
0.215659
0.216503
0.217356
0.218217
0.219087
0.219964
0.220849
0.221742
0.222643
0.223552
0.224469
0.225393
0.226324
0.227263
0.22821
0.229164
0.230125
0.231093
0.232069
0.233051
0.23404
0.235037
0.23604
0.23705
0.238066
0.23909
0.240119
0.241156
0.242198
0.243247
0.244302
0.245363
0.246431
0.247504
0.248584
0.249669
0.25076
0.251857
0.25296
0.254068
0.255182
0.256301
0.257425
0.258555
0.25969
0.260831
0.261976
0.263126
0.264282
0.265442
0.266607
0.267777
0.268952
0.270131
0.271315
0.272503
0.273695
0.274892
0.276093
0.277299
0.278508
0.279722
0.280939
0.28216
0.283386
0.284615
0.285847
0.287083
0.288323
0.289566
0.290813
0.292063
0.293316
0.294573
0.295832
0.297095
0.29836
0.299628
0.300899
0.302173
0.30345
0.304729
0.30601
0.307294
0.30858
0.309868
0.311159
0.312451
0.313746
0.315042
0.31634
0.31764
0.318941
0.320244
0.321552
0.322873
0.324213
0.325574
0.326954
0.328352
0.329762
0.331183
0.332611
0.334044
0.335478
0.336912
0.338344
0.339773
0.341199
0.342621
0.344038
0.34545
0.346858
0.348261
0.349659
0.351052
0.352441
0.353825
0.355206
0.356582
0.357954
0.359322
0.360687
0.362048
0.363404
0.364757
0.366107
0.367452
0.368794
0.370131
0.371465
0.372796
0.374122
0.375444
0.376763
0.378078
0.379389
0.380696
0.381999
0.383299
0.384594
0.385886
0.387174
0.388458
0.389738
0.391015
0.392287
0.393556
0.394821
0.396082
0.39734
0.398593
0.399843
0.401088
0.40233
0.403569
0.404803
0.406033
0.40726
0.408483
0.409702
0.410918
0.412129
0.413337
0.414541
0.415741
0.416937
0.41813
0.419319
0.420504
0.421685
0.422862
0.424036
0.425206
0.426372
0.427534
0.428693
0.429848
0.430999
0.432146
0.43329
0.43443
0.435566
0.436699
0.437827
0.438952
0.440074
0.441191
0.442305
0.443415
0.444522
0.445625
0.446724
0.44782
0.448911
0.45
0.451084
0.452165
0.453243
0.454316
0.455386
0.456453
0.457516
0.458575
0.459631
0.460683
0.461731
0.462776
0.463818
0.464856
0.46589
0.466921
0.467949
0.468972
0.469993
0.47101
0.472023
0.473034
0.47404
0.475043
0.476043
0.47704
0.478033
0.479022
0.480009
0.480992
0.481971
0.482947
0.48392
0.48489
0.485856
0.486819
0.487779
0.488735
0.489688
0.490637
0.491583
0.492526
0.493465
0.494401
0.495333
0.496262
0.497187
0.498108
0.499026
0.49994
0.50085
0.501758
0.502661
0.503562
0.50446
0.505356
0.50625
0.507144
0.508037
0.50893
0.509823
0.510715
0.511606
0.512497
0.513388
0.514278
0.515168
0.516057
0.516946
0.517835
0.518723
0.519611
0.520499
0.521386
0.522273
0.52316
0.524046
0.524932
0.525818
0.526703
0.527588
0.528473
0.529358
0.530242
0.531126
0.53201
0.532894
0.533777
0.534661
0.535544
0.536426
0.537309
0.538191
0.539074
0.539956
0.540838
0.541719
0.542601
0.543482
0.544364
0.545245
0.546125
0.547006
0.547887
0.548767
0.549647
0.550527
0.551407
0.552287
0.553167
0.554046
0.554925
0.555804
0.556683
0.557562
0.55844
0.559318
0.560196
0.561074
0.561951
0.562828
0.563705
0.564581
0.565457
0.566333
0.567208
0.568083
0.568957
0.569831
0.570705
0.571577
0.572449
0.573321
0.574191
0.575061
0.575931
0.576799
0.577666
0.578532
0.579398
0.580262
0.581124
0.581986
0.582846
0.583705
0.584562
0.585417
0.58627
0.587122
0.587971
0.588818
0.589663
0.590505
0.591345
0.592181
0.593015
0.593845
0.594671
0.595494
0.596313
0.597128
0.597938
0.598743
0.599543
0.600338
0.601126
0.601908
0.602684
0.603453
0.604213
0.604966
0.60571
0.606444
0.607169
0.607883
0.608585
0.609276
0.609953
0.610616
0.611264
0.611896
0.612511
0.613107
0.613683
0.614237
0.614769
0.615275
0.615755
0.616205
0.616624
0.617009
0.617357
0.617665
0.61793
0.618147
0.618313
0.618422
0.61847
0.61845
0.618357
0.618182
0.617917
0.617553
0.617078
0.616482
0.615749
0.614864
0.613808
0.61256
0.611094
0.609381
0.607386
0.605069
0.602379
0.599258
0.595633
0.591417
0.586501
0.58075
0.573994
0.565993
0.556426
0.544861
0.530724
0.513236
0.491345
0.463625
0.428176
0.382576
0.324014
0.249461
0.161623
0.0777778
0.0238537
0.0040287
0.00383882
)
;

boundaryField
{
    top_wall
    {
        type            kLowReWallFunction;
        value           uniform 4.88626e-07;
    }
    inlet
    {
        type            cyclic;
    }
    bot_wall
    {
        type            kLowReWallFunction;
        value           uniform 4.88627e-07;
    }
    outlet
    {
        type            cyclic;
    }
    frontAndBack
    {
        type            empty;
    }
}


// ************************************************************************* //
