/*--------------------------------*- C++ -*----------------------------------*\
| =========                 |                                                 |
| \\      /  F ield         | OpenFOAM: The Open Source CFD Toolbox           |
|  \\    /   O peration     | Version:  2312                                  |
|   \\  /    A nd           | Website:  www.openfoam.com                      |
|    \\/     M anipulation  |                                                 |
\*---------------------------------------------------------------------------*/
FoamFile
{
    version     2.0;
    format      ascii;
    arch        "LSB;label=32;scalar=64";
    class       volScalarField;
    location    "20.92";
    object      nut;
}
// * * * * * * * * * * * * * * * * * * * * * * * * * * * * * * * * * * * * * //

dimensions      [0 2 -1 0 0 0 0];

internalField   nonuniform List<scalar> 
1000
(
1.97956e-09
1.19634e-08
1.99186e-07
1.22872e-06
3.86504e-06
8.05923e-06
1.32983e-05
1.88687e-05
2.49419e-05
3.14686e-05
3.83673e-05
4.55682e-05
5.30163e-05
6.06658e-05
6.84732e-05
7.63787e-05
8.42655e-05
9.19787e-05
9.97256e-05
0.000107498
0.000115288
0.000123089
0.000130898
0.00013871
0.00014652
0.000154326
0.000162124
0.000169914
0.000177692
0.000185457
0.000193206
0.00020094
0.000208656
0.000216353
0.00022403
0.000231687
0.000239322
0.000246935
0.000254525
0.000262092
0.000269634
0.000277152
0.000284645
0.000292112
0.000299553
0.000306968
0.000314357
0.000321718
0.000329052
0.000336358
0.000343637
0.000350887
0.000358109
0.000365302
0.000372467
0.000379602
0.000386709
0.000393785
0.000400833
0.00040785
0.000414838
0.000421795
0.000428722
0.000435619
0.000442486
0.000449321
0.000456126
0.0004629
0.000469642
0.000476354
0.000483034
0.000489683
0.0004963
0.000502885
0.000509439
0.00051596
0.00052245
0.000528908
0.000535333
0.000541726
0.000548086
0.000554414
0.00056071
0.000566972
0.000573202
0.000579399
0.000585563
0.000591693
0.000597791
0.000603855
0.000609886
0.000615884
0.000621848
0.000627778
0.000633675
0.000639537
0.000645366
0.000651161
0.000656922
0.000662649
0.000668342
0.000674001
0.000679625
0.000685215
0.00069077
0.000696291
0.000701778
0.000707229
0.000712646
0.000718029
0.000723376
0.000728689
0.000733966
0.000739209
0.000744416
0.000749589
0.000754726
0.000759828
0.000764895
0.000769926
0.000774922
0.000779883
0.000784808
0.000789697
0.000794551
0.00079937
0.000804153
0.0008089
0.000813611
0.000818286
0.000822926
0.00082753
0.000832098
0.00083663
0.000841126
0.000845586
0.00085001
0.000854398
0.00085875
0.000863066
0.000867346
0.00087159
0.000875797
0.000879969
0.000884104
0.000888203
0.000892265
0.000896292
0.000900282
0.000904236
0.000908153
0.000912034
0.000915879
0.000919688
0.00092346
0.000927196
0.000930895
0.000934559
0.000938186
0.000941776
0.00094533
0.000948848
0.00095233
0.000955775
0.000959183
0.000962556
0.000965892
0.000969192
0.000972455
0.000975683
0.000978874
0.000982028
0.000985147
0.000988229
0.000991275
0.000994285
0.000997258
0.0010002
0.0010031
0.00100596
0.00100844
0.00100987
0.00101063
0.00101097
0.00101111
0.00101116
0.00101123
0.00101137
0.00101162
0.00101199
0.00101248
0.0010131
0.00101382
0.00101465
0.00101556
0.00101655
0.0010176
0.0010187
0.00101984
0.001021
0.00102219
0.00102339
0.00102459
0.0010258
0.001027
0.00102819
0.00102936
0.00103053
0.00103167
0.0010328
0.0010339
0.00103499
0.00103605
0.00103708
0.0010381
0.00103909
0.00104005
0.00104099
0.00104191
0.0010428
0.00104367
0.00104451
0.00104533
0.00104612
0.00104689
0.00104763
0.00104835
0.00104905
0.00104972
0.00105037
0.001051
0.0010516
0.00105218
0.00105274
0.00105328
0.00105379
0.00105428
0.00105475
0.00105519
0.00105562
0.00105602
0.0010564
0.00105676
0.0010571
0.00105742
0.00105771
0.00105799
0.00105824
0.00105848
0.00105869
0.00105889
0.00105906
0.00105922
0.00105935
0.00105947
0.00105957
0.00105964
0.0010597
0.00105974
0.00105976
0.00105976
0.00105975
0.00105971
0.00105966
0.00105959
0.0010595
0.00105939
0.00105926
0.00105912
0.00105896
0.00105878
0.00105858
0.00105837
0.00105814
0.00105789
0.00105763
0.00105735
0.00105705
0.00105673
0.0010564
0.00105606
0.00105569
0.00105531
0.00105492
0.0010545
0.00105407
0.00105363
0.00105317
0.00105269
0.0010522
0.00105169
0.00105117
0.00105064
0.00105008
0.00104952
0.00104894
0.00104835
0.00104774
0.00104712
0.00104649
0.00104585
0.0010452
0.00104454
0.00104387
0.00104319
0.00104249
0.00104179
0.00104107
0.00104033
0.00103957
0.00103878
0.00103794
0.00103706
0.0010361
0.00103506
0.00103391
0.00103265
0.00103125
0.0010297
0.00102801
0.00102619
0.00102427
0.00102233
0.00102044
0.00101876
0.00101746
0.00101678
0.00101702
0.00101852
0.00102169
0.00102693
0.00103467
0.00104522
0.00105871
0.00107491
0.00109295
0.00111095
0.00112559
0.00113171
0.00113099
0.00113024
0.00112948
0.0011287
0.0011279
0.00112707
0.00112623
0.00112537
0.00112448
0.00112358
0.00112265
0.0011217
0.00112074
0.00111975
0.00111875
0.00111772
0.00111668
0.00111561
0.00111453
0.00111343
0.00111231
0.00111117
0.00111002
0.00110885
0.00110766
0.00110645
0.00110523
0.00110399
0.00110274
0.00110147
0.00110019
0.00109889
0.00109758
0.00109626
0.00109492
0.00109357
0.00109221
0.00109084
0.00108946
0.00108806
0.00108666
0.00108525
0.00108382
0.00108239
0.00108095
0.00107951
0.00107805
0.00107659
0.00107513
0.00107366
0.00107218
0.0010707
0.00106921
0.00106772
0.00106623
0.00106474
0.00106324
0.00106175
0.00106025
0.00105875
0.00105725
0.00105576
0.00105426
0.00105277
0.00105128
0.00104979
0.00104831
0.00104683
0.00104535
0.00104388
0.00104242
0.00104096
0.00103951
0.00103807
0.00103663
0.00103521
0.00103379
0.00103238
0.00103098
0.0010296
0.00102822
0.00102686
0.0010255
0.00102416
0.00102284
0.00102153
0.00102023
0.00101895
0.00101768
0.00101643
0.00101519
0.00101397
0.00101277
0.00101159
0.00101043
0.00100928
0.00100816
0.00100705
0.00100597
0.0010049
0.00100386
0.00100284
0.00100184
0.00100086
0.000999905
0.000998973
0.000998058
0.000997152
0.000996256
0.000995371
0.000994495
0.000993631
0.000992778
0.000991936
0.000991105
0.000990287
0.000989481
0.000988687
0.000987906
0.000987139
0.000986384
0.000985643
0.000984917
0.000984204
0.000983506
0.000982822
0.000982154
0.000981501
0.000980863
0.000980242
0.000979636
0.000979047
0.000978474
0.000977918
0.000977379
0.000976857
0.000976353
0.000975867
0.000975398
0.000974948
0.000974516
0.000974103
0.000973709
0.000973334
0.000972978
0.000972642
0.000972325
0.000972028
0.000971752
0.000971495
0.000971259
0.000971044
0.000970849
0.000970676
0.000970523
0.000970392
0.000970283
0.000970195
0.000970129
0.000970084
0.000970062
0.000970062
0.000970084
0.000970129
0.000970195
0.000970283
0.000970393
0.000970524
0.000970676
0.00097085
0.000971044
0.000971259
0.000971495
0.000971752
0.000972028
0.000972325
0.000972642
0.000972978
0.000973334
0.000973709
0.000974104
0.000974517
0.000974948
0.000975399
0.000975867
0.000976353
0.000976858
0.000977379
0.000977918
0.000978474
0.000979047
0.000979637
0.000980242
0.000980864
0.000981502
0.000982155
0.000982823
0.000983506
0.000984205
0.000984917
0.000985644
0.000986385
0.000987139
0.000987907
0.000988688
0.000989481
0.000990288
0.000991106
0.000991936
0.000992778
0.000993632
0.000994496
0.000995371
0.000996257
0.000997153
0.000998058
0.000998974
0.000999906
0.00100086
0.00100184
0.00100284
0.00100386
0.0010049
0.00100597
0.00100705
0.00100816
0.00100928
0.00101043
0.00101159
0.00101277
0.00101397
0.00101519
0.00101643
0.00101768
0.00101895
0.00102023
0.00102153
0.00102284
0.00102417
0.0010255
0.00102686
0.00102822
0.0010296
0.00103098
0.00103238
0.00103379
0.00103521
0.00103664
0.00103807
0.00103951
0.00104096
0.00104242
0.00104389
0.00104536
0.00104683
0.00104831
0.00104979
0.00105128
0.00105277
0.00105426
0.00105576
0.00105726
0.00105875
0.00106025
0.00106175
0.00106325
0.00106474
0.00106623
0.00106773
0.00106921
0.0010707
0.00107218
0.00107366
0.00107513
0.00107659
0.00107806
0.00107951
0.00108096
0.00108239
0.00108383
0.00108525
0.00108666
0.00108807
0.00108946
0.00109084
0.00109222
0.00109358
0.00109492
0.00109626
0.00109759
0.0010989
0.00110019
0.00110147
0.00110274
0.001104
0.00110523
0.00110645
0.00110766
0.00110885
0.00111002
0.00111118
0.00111231
0.00111343
0.00111453
0.00111562
0.00111668
0.00111772
0.00111875
0.00111975
0.00112074
0.00112171
0.00112265
0.00112358
0.00112448
0.00112537
0.00112623
0.00112708
0.0011279
0.0011287
0.00112948
0.00113025
0.00113099
0.00113171
0.00112558
0.00111094
0.00109294
0.0010749
0.0010587
0.00104521
0.00103466
0.00102693
0.00102168
0.00101852
0.00101702
0.00101678
0.00101746
0.00101876
0.00102045
0.00102233
0.00102428
0.00102619
0.00102801
0.0010297
0.00103125
0.00103265
0.00103392
0.00103506
0.0010361
0.00103706
0.00103795
0.00103878
0.00103957
0.00104033
0.00104107
0.00104179
0.00104249
0.00104319
0.00104387
0.00104454
0.0010452
0.00104585
0.00104649
0.00104712
0.00104774
0.00104835
0.00104894
0.00104952
0.00105009
0.00105064
0.00105117
0.0010517
0.0010522
0.00105269
0.00105317
0.00105363
0.00105407
0.0010545
0.00105492
0.00105531
0.00105569
0.00105606
0.0010564
0.00105674
0.00105705
0.00105735
0.00105763
0.00105789
0.00105814
0.00105837
0.00105859
0.00105878
0.00105896
0.00105912
0.00105926
0.00105939
0.0010595
0.00105959
0.00105966
0.00105971
0.00105975
0.00105977
0.00105976
0.00105974
0.0010597
0.00105965
0.00105957
0.00105947
0.00105936
0.00105922
0.00105906
0.00105889
0.00105869
0.00105848
0.00105824
0.00105799
0.00105771
0.00105742
0.0010571
0.00105676
0.0010564
0.00105602
0.00105562
0.00105519
0.00105475
0.00105428
0.00105379
0.00105328
0.00105274
0.00105218
0.0010516
0.001051
0.00105037
0.00104972
0.00104905
0.00104836
0.00104763
0.00104689
0.00104612
0.00104533
0.00104451
0.00104367
0.0010428
0.00104191
0.00104099
0.00104005
0.00103909
0.0010381
0.00103708
0.00103605
0.00103499
0.0010339
0.0010328
0.00103167
0.00103053
0.00102936
0.00102819
0.001027
0.0010258
0.00102459
0.00102339
0.00102219
0.001021
0.00101984
0.0010187
0.0010176
0.00101655
0.00101556
0.00101465
0.00101382
0.0010131
0.00101248
0.00101199
0.00101162
0.00101138
0.00101123
0.00101116
0.00101111
0.00101098
0.00101063
0.00100987
0.00100844
0.00100596
0.0010031
0.0010002
0.000997259
0.000994285
0.000991275
0.000988229
0.000985147
0.000982029
0.000978874
0.000975683
0.000972456
0.000969192
0.000965892
0.000962556
0.000959184
0.000955775
0.00095233
0.000948848
0.000945331
0.000941776
0.000938186
0.000934559
0.000930896
0.000927196
0.00092346
0.000919688
0.00091588
0.000912035
0.000908153
0.000904236
0.000900282
0.000896292
0.000892266
0.000888203
0.000884104
0.000879969
0.000875798
0.00087159
0.000867346
0.000863067
0.000858751
0.000854399
0.000850011
0.000845586
0.000841126
0.00083663
0.000832098
0.00082753
0.000822926
0.000818287
0.000813611
0.0008089
0.000804153
0.00079937
0.000794552
0.000789698
0.000784808
0.000779883
0.000774922
0.000769926
0.000764895
0.000759828
0.000754726
0.000749589
0.000744417
0.000739209
0.000733966
0.000728689
0.000723376
0.000718029
0.000712647
0.000707229
0.000701778
0.000696291
0.00069077
0.000685215
0.000679625
0.000674001
0.000668342
0.000662649
0.000656922
0.000651161
0.000645366
0.000639537
0.000633675
0.000627778
0.000621848
0.000615884
0.000609886
0.000603855
0.000597791
0.000591693
0.000585563
0.000579399
0.000573202
0.000566972
0.00056071
0.000554414
0.000548086
0.000541726
0.000535333
0.000528908
0.00052245
0.00051596
0.000509439
0.000502885
0.0004963
0.000489683
0.000483034
0.000476354
0.000469642
0.0004629
0.000456126
0.000449321
0.000442485
0.000435619
0.000428722
0.000421795
0.000414838
0.00040785
0.000400833
0.000393785
0.000386709
0.000379602
0.000372467
0.000365302
0.000358109
0.000350887
0.000343637
0.000336358
0.000329052
0.000321718
0.000314357
0.000306968
0.000299553
0.000292112
0.000284645
0.000277152
0.000269634
0.000262092
0.000254525
0.000246935
0.000239322
0.000231687
0.00022403
0.000216353
0.000208656
0.00020094
0.000193206
0.000185457
0.000177692
0.000169914
0.000162124
0.000154326
0.00014652
0.000138709
0.000130898
0.000123089
0.000115288
0.000107498
9.97255e-05
9.19786e-05
8.42655e-05
7.63787e-05
6.84732e-05
6.06658e-05
5.30163e-05
4.55682e-05
3.83673e-05
3.14686e-05
2.49419e-05
1.88687e-05
1.32983e-05
8.05922e-06
3.86504e-06
1.22872e-06
1.99186e-07
1.19634e-08
1.97956e-09
)
;

boundaryField
{
    top_wall
    {
        type            nutLowReWallFunction;
        value           uniform 0;
    }
    inlet
    {
        type            cyclic;
    }
    bot_wall
    {
        type            nutLowReWallFunction;
        value           uniform 0;
    }
    outlet
    {
        type            cyclic;
    }
    frontAndBack
    {
        type            empty;
    }
}


// ************************************************************************* //
