/*--------------------------------*- C++ -*----------------------------------*\
| =========                 |                                                 |
| \\      /  F ield         | OpenFOAM: The Open Source CFD Toolbox           |
|  \\    /   O peration     | Version:  2312                                  |
|   \\  /    A nd           | Website:  www.openfoam.com                      |
|    \\/     M anipulation  |                                                 |
\*---------------------------------------------------------------------------*/
FoamFile
{
    version     2.0;
    format      ascii;
    arch        "LSB;label=32;scalar=64";
    class       volVectorField;
    location    "20.92";
    object      U;
}
// * * * * * * * * * * * * * * * * * * * * * * * * * * * * * * * * * * * * * //

dimensions      [0 1 -1 0 0 0 0];

internalField   nonuniform List<vector> 
1000
(
(0.356555 -2.32037e-18 0)
(1.068 -6.5744e-18 0)
(1.77351 -5.97805e-18 0)
(2.45068 -5.73522e-18 0)
(3.05658 -5.68057e-18 0)
(3.5635 -5.68523e-18 0)
(3.97707 -5.68252e-18 0)
(4.31844 -5.67369e-18 0)
(4.60562 -5.66088e-18 0)
(4.85061 -5.6496e-18 0)
(5.06236 -5.64197e-18 0)
(5.24762 -5.63765e-18 0)
(5.41152 -5.63762e-18 0)
(5.55795 -5.64132e-18 0)
(5.68994 -5.64536e-18 0)
(5.80986 -5.64757e-18 0)
(5.91966 -5.6481e-18 0)
(6.02097 -5.64829e-18 0)
(6.11506 -5.64739e-18 0)
(6.20283 -5.65166e-18 0)
(6.28505 -5.65095e-18 0)
(6.36236 -5.65327e-18 0)
(6.43528 -5.66884e-18 0)
(6.50428 -5.67633e-18 0)
(6.56974 -5.68635e-18 0)
(6.632 -5.70615e-18 0)
(6.69135 -5.72501e-18 0)
(6.74804 -5.74666e-18 0)
(6.80229 -5.74589e-18 0)
(6.85431 -5.74701e-18 0)
(6.90426 -5.77161e-18 0)
(6.9523 -5.7988e-18 0)
(6.99857 -5.78381e-18 0)
(7.04319 -5.77001e-18 0)
(7.08627 -5.79197e-18 0)
(7.12792 -5.80096e-18 0)
(7.16823 -5.80554e-18 0)
(7.20727 -5.79832e-18 0)
(7.24513 -5.78766e-18 0)
(7.28188 -5.78101e-18 0)
(7.31757 -5.7712e-18 0)
(7.35227 -5.7653e-18 0)
(7.38603 -5.75968e-18 0)
(7.41889 -5.75154e-18 0)
(7.45092 -5.74121e-18 0)
(7.48214 -5.73123e-18 0)
(7.51259 -5.72759e-18 0)
(7.54232 -5.72705e-18 0)
(7.57136 -5.72012e-18 0)
(7.59973 -5.71366e-18 0)
(7.62748 -5.70995e-18 0)
(7.65462 -5.70893e-18 0)
(7.68118 -5.70726e-18 0)
(7.70718 -5.70196e-18 0)
(7.73266 -5.69604e-18 0)
(7.75763 -5.69212e-18 0)
(7.78211 -5.69342e-18 0)
(7.80612 -5.69037e-18 0)
(7.82967 -5.68015e-18 0)
(7.85279 -5.66874e-18 0)
(7.8755 -5.66154e-18 0)
(7.89779 -5.65849e-18 0)
(7.9197 -5.65349e-18 0)
(7.94124 -5.64336e-18 0)
(7.96241 -5.63373e-18 0)
(7.98323 -5.63343e-18 0)
(8.00371 -5.63928e-18 0)
(8.02387 -5.63911e-18 0)
(8.0437 -5.6332e-18 0)
(8.06324 -5.63031e-18 0)
(8.08247 -5.63586e-18 0)
(8.10142 -5.64709e-18 0)
(8.12008 -5.65183e-18 0)
(8.13848 -5.64992e-18 0)
(8.15662 -5.65644e-18 0)
(8.1745 -5.67374e-18 0)
(8.19213 -5.69271e-18 0)
(8.20952 -5.70784e-18 0)
(8.22668 -5.71903e-18 0)
(8.24361 -5.73268e-18 0)
(8.26033 -5.74537e-18 0)
(8.27682 -5.75385e-18 0)
(8.29311 -5.76474e-18 0)
(8.3092 -5.77418e-18 0)
(8.32508 -5.78524e-18 0)
(8.34078 -5.80152e-18 0)
(8.35628 -5.81051e-18 0)
(8.37161 -5.81276e-18 0)
(8.38675 -5.81441e-18 0)
(8.40172 -5.815e-18 0)
(8.41652 -5.81451e-18 0)
(8.43116 -5.81295e-18 0)
(8.44563 -5.81037e-18 0)
(8.45994 -5.80653e-18 0)
(8.4741 -5.8045e-18 0)
(8.48811 -5.80423e-18 0)
(8.50198 -5.80262e-18 0)
(8.5157 -5.79991e-18 0)
(8.52928 -5.79609e-18 0)
(8.54272 -5.79088e-18 0)
(8.55602 -5.78736e-18 0)
(8.5692 -5.78544e-18 0)
(8.58225 -5.78219e-18 0)
(8.59517 -5.7746e-18 0)
(8.60797 -5.76523e-18 0)
(8.62065 -5.76313e-18 0)
(8.63321 -5.7659e-18 0)
(8.64565 -5.75325e-18 0)
(8.65798 -5.71051e-18 0)
(8.6702 -5.66632e-18 0)
(8.68231 -5.64882e-18 0)
(8.69432 -5.6454e-18 0)
(8.70622 -5.64172e-18 0)
(8.71802 -5.63569e-18 0)
(8.72972 -5.6274e-18 0)
(8.74132 -5.61683e-18 0)
(8.75283 -5.60396e-18 0)
(8.76424 -5.5888e-18 0)
(8.77556 -5.57195e-18 0)
(8.78678 -5.54713e-18 0)
(8.79792 -5.46556e-18 0)
(8.80897 -5.38646e-18 0)
(8.81993 -5.3683e-18 0)
(8.83081 -5.35949e-18 0)
(8.84161 -5.35081e-18 0)
(8.85233 -5.34311e-18 0)
(8.86296 -5.33634e-18 0)
(8.87352 -5.33046e-18 0)
(8.884 -5.32549e-18 0)
(8.8944 -5.32127e-18 0)
(8.90473 -5.31885e-18 0)
(8.91499 -5.30392e-18 0)
(8.92517 -5.2274e-18 0)
(8.93529 -5.15199e-18 0)
(8.94533 -5.14273e-18 0)
(8.95531 -5.15169e-18 0)
(8.96522 -5.14315e-18 0)
(8.97506 -5.12134e-18 0)
(8.98484 -5.09813e-18 0)
(8.99455 -5.0884e-18 0)
(9.0042 -5.09869e-18 0)
(9.01379 -5.09365e-18 0)
(9.02332 -5.02279e-18 0)
(9.03279 -4.95187e-18 0)
(9.0422 -4.94585e-18 0)
(9.05155 -4.95607e-18 0)
(9.06085 -4.96627e-18 0)
(9.07008 -4.97595e-18 0)
(9.07927 -4.97527e-18 0)
(9.0884 -4.94609e-18 0)
(9.09747 -4.91531e-18 0)
(9.10649 -4.90961e-18 0)
(9.11546 -4.91089e-18 0)
(9.12438 -4.9096e-18 0)
(9.13325 -4.9074e-18 0)
(9.14207 -4.90853e-18 0)
(9.15084 -4.91557e-18 0)
(9.15956 -4.91024e-18 0)
(9.16823 -4.8779e-18 0)
(9.17686 -4.83423e-18 0)
(9.18544 -4.79508e-18 0)
(9.19398 -4.75497e-18 0)
(9.20247 -4.7313e-18 0)
(9.21091 -4.71765e-18 0)
(9.21932 -4.6904e-18 0)
(9.22768 -4.67435e-18 0)
(9.23599 -4.63504e-18 0)
(9.24427 -4.58068e-18 0)
(9.2525 -4.54297e-18 0)
(9.2607 -4.50062e-18 0)
(9.26885 -4.48031e-18 0)
(9.27696 -4.4431e-18 0)
(9.28504 -4.36972e-18 0)
(9.29307 -4.31458e-18 0)
(9.30107 -4.27697e-18 0)
(9.30903 -4.22331e-18 0)
(9.31695 -4.15065e-18 0)
(9.32484 -4.10768e-18 0)
(9.33269 -4.06504e-18 0)
(9.34051 -4.02755e-18 0)
(9.34829 -4.01267e-18 0)
(9.35604 -3.98706e-18 0)
(9.36377 -3.94865e-18 0)
(9.37149 -3.89466e-18 0)
(9.37919 -3.84011e-18 0)
(9.38687 -3.8045e-18 0)
(9.39454 -3.78812e-18 0)
(9.4022 -3.75498e-18 0)
(9.40984 -3.70609e-18 0)
(9.41746 -3.6603e-18 0)
(9.42507 -3.61506e-18 0)
(9.43266 -3.56772e-18 0)
(9.44022 -3.534e-18 0)
(9.44777 -3.51453e-18 0)
(9.4553 -3.50076e-18 0)
(9.46281 -3.46771e-18 0)
(9.47029 -3.41017e-18 0)
(9.47775 -3.36829e-18 0)
(9.48519 -3.33942e-18 0)
(9.49261 -3.28924e-18 0)
(9.5 -3.21753e-18 0)
(9.50737 -3.176e-18 0)
(9.51472 -3.14673e-18 0)
(9.52204 -3.09385e-18 0)
(9.52934 -3.0442e-18 0)
(9.53662 -2.97743e-18 0)
(9.54388 -2.92253e-18 0)
(9.55111 -2.87316e-18 0)
(9.55832 -2.82132e-18 0)
(9.5655 -2.78057e-18 0)
(9.57266 -2.74144e-18 0)
(9.5798 -2.69823e-18 0)
(9.58692 -2.64877e-18 0)
(9.59402 -2.58295e-18 0)
(9.60109 -2.5368e-18 0)
(9.60814 -2.54191e-18 0)
(9.61517 -2.53327e-18 0)
(9.62218 -2.5083e-18 0)
(9.62917 -2.44716e-18 0)
(9.63614 -2.40446e-18 0)
(9.64308 -2.41213e-18 0)
(9.65001 -2.39612e-18 0)
(9.65691 -2.36038e-18 0)
(9.66379 -2.32671e-18 0)
(9.67065 -2.29151e-18 0)
(9.6775 -2.21789e-18 0)
(9.68432 -2.15908e-18 0)
(9.69112 -2.15135e-18 0)
(9.6979 -2.12501e-18 0)
(9.70466 -2.08286e-18 0)
(9.7114 -2.04458e-18 0)
(9.71812 -2.02681e-18 0)
(9.72483 -2.02405e-18 0)
(9.73151 -1.99784e-18 0)
(9.73817 -1.94889e-18 0)
(9.74482 -1.89762e-18 0)
(9.75144 -1.86305e-18 0)
(9.75805 -1.8429e-18 0)
(9.76464 -1.80239e-18 0)
(9.7712 -1.7465e-18 0)
(9.77775 -1.6646e-18 0)
(9.78429 -1.59169e-18 0)
(9.7908 -1.52451e-18 0)
(9.79729 -1.47112e-18 0)
(9.80377 -1.46127e-18 0)
(9.81023 -1.39415e-18 0)
(9.81667 -1.30548e-18 0)
(9.82309 -1.25275e-18 0)
(9.82949 -1.18531e-18 0)
(9.83588 -1.11667e-18 0)
(9.84225 -1.08768e-18 0)
(9.8486 -1.05504e-18 0)
(9.85493 -1.00308e-18 0)
(9.86125 -9.03558e-19 0)
(9.86754 -7.74101e-19 0)
(9.87382 -7.06585e-19 0)
(9.88009 -6.77518e-19 0)
(9.88633 -6.18768e-19 0)
(9.89256 -5.45864e-19 0)
(9.89877 -4.42405e-19 0)
(9.90496 -3.61179e-19 0)
(9.91114 -3.5074e-19 0)
(9.9173 -3.04959e-19 0)
(9.92344 -2.07104e-19 0)
(9.92956 -1.01077e-19 0)
(9.93567 -5.19713e-20 0)
(9.94176 -5.62594e-20 0)
(9.94784 -3.78923e-21 0)
(9.9539 1.28261e-19 0)
(9.95994 2.1127e-19 0)
(9.96596 2.36451e-19 0)
(9.97197 3.10013e-19 0)
(9.97796 3.84779e-19 0)
(9.98393 4.72233e-19 0)
(9.98989 5.79225e-19 0)
(9.99583 6.4074e-19 0)
(10.0018 6.88244e-19 0)
(10.0077 7.189e-19 0)
(10.0136 7.37074e-19 0)
(10.0194 7.46902e-19 0)
(10.0253 7.73206e-19 0)
(10.0311 8.60578e-19 0)
(10.037 9.26807e-19 0)
(10.0428 9.42318e-19 0)
(10.0486 9.7676e-19 0)
(10.0543 1.02799e-18 0)
(10.0601 1.07657e-18 0)
(10.0658 1.12169e-18 0)
(10.0716 1.16543e-18 0)
(10.0773 1.19165e-18 0)
(10.083 1.20148e-18 0)
(10.0887 1.26237e-18 0)
(10.0943 1.34004e-18 0)
(10.1 1.42006e-18 0)
(10.1056 1.48163e-18 0)
(10.1112 1.48663e-18 0)
(10.1168 1.50475e-18 0)
(10.1224 1.54067e-18 0)
(10.128 1.58192e-18 0)
(10.1335 1.6256e-18 0)
(10.139 1.66909e-18 0)
(10.1446 1.69619e-18 0)
(10.1501 1.70665e-18 0)
(10.1555 1.73685e-18 0)
(10.161 1.78952e-18 0)
(10.1665 1.81512e-18 0)
(10.1719 1.82223e-18 0)
(10.1773 1.84016e-18 0)
(10.1827 1.91407e-18 0)
(10.1881 2.00674e-18 0)
(10.1935 2.09372e-18 0)
(10.1988 2.1944e-18 0)
(10.2042 2.23927e-18 0)
(10.2095 2.23191e-18 0)
(10.2148 2.21195e-18 0)
(10.2201 2.19577e-18 0)
(10.2254 2.18089e-18 0)
(10.2306 2.16668e-18 0)
(10.2359 2.15271e-18 0)
(10.2411 2.13906e-18 0)
(10.2463 2.12267e-18 0)
(10.2515 2.10354e-18 0)
(10.2567 2.08507e-18 0)
(10.2619 2.06382e-18 0)
(10.2671 2.04291e-18 0)
(10.2723 2.0257e-18 0)
(10.2774 2.00608e-18 0)
(10.2825 1.9812e-18 0)
(10.2876 1.95419e-18 0)
(10.2927 1.92791e-18 0)
(10.2977 1.90222e-18 0)
(10.3027 1.87689e-18 0)
(10.3076 1.85506e-18 0)
(10.3124 1.83696e-18 0)
(10.3172 1.81633e-18 0)
(10.3218 1.79354e-18 0)
(10.3264 1.7717e-18 0)
(10.3308 1.75044e-18 0)
(10.3352 1.72969e-18 0)
(10.3396 1.70926e-18 0)
(10.3439 1.68908e-18 0)
(10.3483 1.66914e-18 0)
(10.3526 1.64945e-18 0)
(10.3568 1.62996e-18 0)
(10.3611 1.61067e-18 0)
(10.3653 1.59158e-18 0)
(10.3696 1.57272e-18 0)
(10.3738 1.55409e-18 0)
(10.3779 1.53564e-18 0)
(10.3821 1.5174e-18 0)
(10.3862 1.49936e-18 0)
(10.3903 1.48152e-18 0)
(10.3944 1.46388e-18 0)
(10.3985 1.44625e-18 0)
(10.4026 1.43127e-18 0)
(10.4066 1.4249e-18 0)
(10.4106 1.42713e-18 0)
(10.4146 1.43204e-18 0)
(10.4186 1.43694e-18 0)
(10.4225 1.44248e-18 0)
(10.4265 1.44252e-18 0)
(10.4304 1.43657e-18 0)
(10.4343 1.43698e-18 0)
(10.4381 1.44351e-18 0)
(10.442 1.44697e-18 0)
(10.4458 1.44778e-18 0)
(10.4496 1.44901e-18 0)
(10.4534 1.45043e-18 0)
(10.4572 1.45204e-18 0)
(10.4609 1.45384e-18 0)
(10.4646 1.45584e-18 0)
(10.4683 1.45802e-18 0)
(10.472 1.4604e-18 0)
(10.4757 1.46296e-18 0)
(10.4793 1.46571e-18 0)
(10.4829 1.46864e-18 0)
(10.4865 1.47176e-18 0)
(10.4901 1.47506e-18 0)
(10.4936 1.47854e-18 0)
(10.4972 1.48222e-18 0)
(10.5007 1.4861e-18 0)
(10.5042 1.49018e-18 0)
(10.5076 1.49444e-18 0)
(10.5111 1.49887e-18 0)
(10.5145 1.50348e-18 0)
(10.5179 1.50828e-18 0)
(10.5212 1.51327e-18 0)
(10.5246 1.51845e-18 0)
(10.5279 1.52383e-18 0)
(10.5312 1.52937e-18 0)
(10.5345 1.5351e-18 0)
(10.5377 1.54102e-18 0)
(10.541 1.54713e-18 0)
(10.5442 1.55343e-18 0)
(10.5474 1.55992e-18 0)
(10.5505 1.56658e-18 0)
(10.5537 1.57321e-18 0)
(10.5568 1.58288e-18 0)
(10.5599 1.5956e-18 0)
(10.563 1.60828e-18 0)
(10.566 1.62133e-18 0)
(10.569 1.6321e-18 0)
(10.572 1.63464e-18 0)
(10.575 1.62893e-18 0)
(10.5779 1.6209e-18 0)
(10.5809 1.6132e-18 0)
(10.5837 1.60564e-18 0)
(10.5866 1.59819e-18 0)
(10.5895 1.5911e-18 0)
(10.5923 1.5815e-18 0)
(10.5951 1.5663e-18 0)
(10.5978 1.54813e-18 0)
(10.6006 1.53626e-18 0)
(10.6033 1.52743e-18 0)
(10.606 1.51502e-18 0)
(10.6087 1.50835e-18 0)
(10.6113 1.51289e-18 0)
(10.6139 1.52878e-18 0)
(10.6165 1.54859e-18 0)
(10.6191 1.54833e-18 0)
(10.6216 1.5275e-18 0)
(10.6241 1.51604e-18 0)
(10.6266 1.52479e-18 0)
(10.629 1.54433e-18 0)
(10.6315 1.56653e-18 0)
(10.6339 1.58607e-18 0)
(10.6362 1.60024e-18 0)
(10.6386 1.60926e-18 0)
(10.6409 1.61288e-18 0)
(10.6432 1.61398e-18 0)
(10.6454 1.61543e-18 0)
(10.6476 1.61701e-18 0)
(10.6498 1.61874e-18 0)
(10.652 1.62061e-18 0)
(10.6542 1.62263e-18 0)
(10.6563 1.6248e-18 0)
(10.6583 1.62711e-18 0)
(10.6604 1.62957e-18 0)
(10.6624 1.63217e-18 0)
(10.6644 1.63492e-18 0)
(10.6664 1.63781e-18 0)
(10.6683 1.64085e-18 0)
(10.6702 1.64404e-18 0)
(10.6721 1.64737e-18 0)
(10.6739 1.65085e-18 0)
(10.6757 1.65447e-18 0)
(10.6775 1.65824e-18 0)
(10.6793 1.66216e-18 0)
(10.681 1.66622e-18 0)
(10.6827 1.67041e-18 0)
(10.6843 1.67498e-18 0)
(10.686 1.67682e-18 0)
(10.6876 1.67593e-18 0)
(10.6891 1.67541e-18 0)
(10.6907 1.67502e-18 0)
(10.6922 1.67477e-18 0)
(10.6936 1.67466e-18 0)
(10.6951 1.6747e-18 0)
(10.6965 1.67487e-18 0)
(10.6979 1.67521e-18 0)
(10.6992 1.67549e-18 0)
(10.7005 1.67858e-18 0)
(10.7018 1.68756e-18 0)
(10.703 1.69955e-18 0)
(10.7042 1.70881e-18 0)
(10.7054 1.71271e-18 0)
(10.7066 1.71124e-18 0)
(10.7077 1.70701e-18 0)
(10.7088 1.70601e-18 0)
(10.7098 1.70802e-18 0)
(10.7108 1.70996e-18 0)
(10.7118 1.71227e-18 0)
(10.7128 1.71186e-18 0)
(10.7137 1.70871e-18 0)
(10.7146 1.70593e-18 0)
(10.7154 1.70328e-18 0)
(10.7162 1.70077e-18 0)
(10.717 1.69843e-18 0)
(10.7177 1.69602e-18 0)
(10.7185 1.69663e-18 0)
(10.7191 1.70027e-18 0)
(10.7198 1.70385e-18 0)
(10.7204 1.70759e-18 0)
(10.721 1.71148e-18 0)
(10.7215 1.71552e-18 0)
(10.722 1.7197e-18 0)
(10.7225 1.72404e-18 0)
(10.723 1.72854e-18 0)
(10.7234 1.73299e-18 0)
(10.7238 1.74026e-18 0)
(10.7241 1.75321e-18 0)
(10.7244 1.77206e-18 0)
(10.7247 1.79086e-18 0)
(10.7249 1.80672e-18 0)
(10.7251 1.82315e-18 0)
(10.7253 1.8373e-18 0)
(10.7254 1.84256e-18 0)
(10.7255 1.84775e-18 0)
(10.7256 1.8652e-18 0)
(10.7256 1.88543e-18 0)
(10.7256 1.89987e-18 0)
(10.7256 1.90876e-18 0)
(10.7255 1.91777e-18 0)
(10.7254 1.93307e-18 0)
(10.7253 1.94853e-18 0)
(10.7251 1.95796e-18 0)
(10.7249 1.96776e-18 0)
(10.7247 1.981e-18 0)
(10.7244 1.99107e-18 0)
(10.7241 2.00131e-18 0)
(10.7238 2.01478e-18 0)
(10.7234 2.02816e-18 0)
(10.723 2.04171e-18 0)
(10.7225 2.05539e-18 0)
(10.722 2.06922e-18 0)
(10.7215 2.0832e-18 0)
(10.721 2.09731e-18 0)
(10.7204 2.11157e-18 0)
(10.7198 2.12596e-18 0)
(10.7191 2.14051e-18 0)
(10.7185 2.15519e-18 0)
(10.7177 2.17002e-18 0)
(10.717 2.18499e-18 0)
(10.7162 2.2001e-18 0)
(10.7154 2.21536e-18 0)
(10.7146 2.23075e-18 0)
(10.7137 2.24627e-18 0)
(10.7128 2.26213e-18 0)
(10.7118 2.27548e-18 0)
(10.7108 2.2832e-18 0)
(10.7098 2.28841e-18 0)
(10.7088 2.29397e-18 0)
(10.7077 2.29966e-18 0)
(10.7066 2.30549e-18 0)
(10.7054 2.31146e-18 0)
(10.7042 2.31759e-18 0)
(10.703 2.32385e-18 0)
(10.7018 2.33026e-18 0)
(10.7005 2.3366e-18 0)
(10.6992 2.34595e-18 0)
(10.6979 2.35852e-18 0)
(10.6965 2.36814e-18 0)
(10.6951 2.37505e-18 0)
(10.6936 2.38231e-18 0)
(10.6922 2.3897e-18 0)
(10.6907 2.39723e-18 0)
(10.6891 2.40489e-18 0)
(10.6876 2.41267e-18 0)
(10.686 2.4208e-18 0)
(10.6843 2.42639e-18 0)
(10.6827 2.4266e-18 0)
(10.681 2.42143e-18 0)
(10.6793 2.41354e-18 0)
(10.6775 2.40867e-18 0)
(10.6757 2.40969e-18 0)
(10.6739 2.41352e-18 0)
(10.6721 2.41729e-18 0)
(10.6702 2.42122e-18 0)
(10.6683 2.42529e-18 0)
(10.6664 2.4295e-18 0)
(10.6644 2.43385e-18 0)
(10.6624 2.43834e-18 0)
(10.6604 2.44298e-18 0)
(10.6583 2.44776e-18 0)
(10.6563 2.45268e-18 0)
(10.6542 2.45774e-18 0)
(10.652 2.46294e-18 0)
(10.6498 2.46828e-18 0)
(10.6476 2.47377e-18 0)
(10.6454 2.4794e-18 0)
(10.6432 2.48515e-18 0)
(10.6409 2.49125e-18 0)
(10.6386 2.49482e-18 0)
(10.6362 2.49298e-18 0)
(10.6339 2.48595e-18 0)
(10.6315 2.47373e-18 0)
(10.629 2.45616e-18 0)
(10.6266 2.43571e-18 0)
(10.6241 2.42072e-18 0)
(10.6216 2.42019e-18 0)
(10.6191 2.42882e-18 0)
(10.6165 2.42568e-18 0)
(10.6139 2.40817e-18 0)
(10.6113 2.39148e-18 0)
(10.6087 2.38061e-18 0)
(10.606 2.37558e-18 0)
(10.6033 2.37092e-18 0)
(10.6006 2.35715e-18 0)
(10.5978 2.34352e-18 0)
(10.5951 2.33905e-18 0)
(10.5923 2.33709e-18 0)
(10.5895 2.33504e-18 0)
(10.5866 2.33306e-18 0)
(10.5837 2.33116e-18 0)
(10.5808 2.3293e-18 0)
(10.5779 2.32749e-18 0)
(10.575 2.32569e-18 0)
(10.572 2.32412e-18 0)
(10.569 2.31967e-18 0)
(10.566 2.31233e-18 0)
(10.563 2.30517e-18 0)
(10.5599 2.29797e-18 0)
(10.5568 2.29047e-18 0)
(10.5537 2.28597e-18 0)
(10.5505 2.28135e-18 0)
(10.5474 2.27349e-18 0)
(10.5442 2.26571e-18 0)
(10.541 2.25772e-18 0)
(10.5377 2.24952e-18 0)
(10.5345 2.24111e-18 0)
(10.5312 2.23246e-18 0)
(10.5279 2.22355e-18 0)
(10.5246 2.21439e-18 0)
(10.5212 2.20497e-18 0)
(10.5179 2.19529e-18 0)
(10.5145 2.18538e-18 0)
(10.5111 2.17529e-18 0)
(10.5076 2.16505e-18 0)
(10.5042 2.15473e-18 0)
(10.5007 2.14443e-18 0)
(10.4972 2.13428e-18 0)
(10.4936 2.12442e-18 0)
(10.4901 2.11503e-18 0)
(10.4865 2.10635e-18 0)
(10.4829 2.09864e-18 0)
(10.4793 2.09224e-18 0)
(10.4757 2.08756e-18 0)
(10.472 2.08506e-18 0)
(10.4683 2.0851e-18 0)
(10.4646 2.09113e-18 0)
(10.4609 2.10745e-18 0)
(10.4572 2.12442e-18 0)
(10.4534 2.14387e-18 0)
(10.4496 2.16338e-18 0)
(10.4458 2.18056e-18 0)
(10.442 2.19721e-18 0)
(10.4381 2.2037e-18 0)
(10.4343 2.20434e-18 0)
(10.4304 2.20261e-18 0)
(10.4265 2.19885e-18 0)
(10.4225 2.19352e-18 0)
(10.4186 2.18703e-18 0)
(10.4146 2.1797e-18 0)
(10.4106 2.17182e-18 0)
(10.4066 2.1636e-18 0)
(10.4026 2.15542e-18 0)
(10.3985 2.14464e-18 0)
(10.3944 2.12781e-18 0)
(10.3903 2.11427e-18 0)
(10.3862 2.10738e-18 0)
(10.3821 2.09468e-18 0)
(10.3779 2.07623e-18 0)
(10.3738 2.06414e-18 0)
(10.3696 2.06104e-18 0)
(10.3653 2.06081e-18 0)
(10.3611 2.06078e-18 0)
(10.3568 2.06113e-18 0)
(10.3526 2.06183e-18 0)
(10.3483 2.06284e-18 0)
(10.3439 2.06419e-18 0)
(10.3396 2.06586e-18 0)
(10.3352 2.06787e-18 0)
(10.3308 2.07019e-18 0)
(10.3264 2.07283e-18 0)
(10.3218 2.07573e-18 0)
(10.3172 2.07914e-18 0)
(10.3124 2.07995e-18 0)
(10.3076 2.07803e-18 0)
(10.3027 2.0765e-18 0)
(10.2977 2.07514e-18 0)
(10.2927 2.07394e-18 0)
(10.2876 2.07292e-18 0)
(10.2825 2.07228e-18 0)
(10.2774 2.06916e-18 0)
(10.2723 2.06047e-18 0)
(10.2671 2.0491e-18 0)
(10.2619 2.04101e-18 0)
(10.2567 2.03596e-18 0)
(10.2515 2.03089e-18 0)
(10.2463 2.02602e-18 0)
(10.2411 2.02109e-18 0)
(10.2359 2.01943e-18 0)
(10.2306 2.01795e-18 0)
(10.2254 2.01355e-18 0)
(10.2201 2.00953e-18 0)
(10.2148 2.00564e-18 0)
(10.2095 2.00189e-18 0)
(10.2042 1.99827e-18 0)
(10.1988 1.99476e-18 0)
(10.1935 1.99131e-18 0)
(10.1881 1.98791e-18 0)
(10.1827 1.98454e-18 0)
(10.1773 1.98118e-18 0)
(10.1719 1.97755e-18 0)
(10.1665 1.9767e-18 0)
(10.161 1.97861e-18 0)
(10.1555 1.98014e-18 0)
(10.15 1.9815e-18 0)
(10.1445 1.98263e-18 0)
(10.139 1.98347e-18 0)
(10.1335 1.98403e-18 0)
(10.1279 1.98425e-18 0)
(10.1224 1.9847e-18 0)
(10.1168 1.97784e-18 0)
(10.1112 1.94087e-18 0)
(10.1056 1.90101e-18 0)
(10.1 1.88863e-18 0)
(10.0943 1.88397e-18 0)
(10.0886 1.87964e-18 0)
(10.083 1.87668e-18 0)
(10.0773 1.87576e-18 0)
(10.0716 1.87757e-18 0)
(10.0658 1.88386e-18 0)
(10.0601 1.88747e-18 0)
(10.0543 1.90369e-18 0)
(10.0486 1.92074e-18 0)
(10.0428 1.93029e-18 0)
(10.037 1.9487e-18 0)
(10.0311 1.95572e-18 0)
(10.0253 1.92782e-18 0)
(10.0194 1.8961e-18 0)
(10.0136 1.89149e-18 0)
(10.0077 1.88915e-18 0)
(10.0018 1.87939e-18 0)
(9.99583 1.86675e-18 0)
(9.98989 1.85486e-18 0)
(9.98393 1.844e-18 0)
(9.97795 1.83453e-18 0)
(9.97196 1.82696e-18 0)
(9.96596 1.81816e-18 0)
(9.95993 1.81153e-18 0)
(9.95389 1.80737e-18 0)
(9.94783 1.79932e-18 0)
(9.94176 1.79072e-18 0)
(9.93567 1.78439e-18 0)
(9.92956 1.78038e-18 0)
(9.92344 1.77555e-18 0)
(9.91729 1.76986e-18 0)
(9.91114 1.76653e-18 0)
(9.90496 1.76206e-18 0)
(9.89877 1.75616e-18 0)
(9.89256 1.75231e-18 0)
(9.88633 1.74183e-18 0)
(9.88008 1.72337e-18 0)
(9.87382 1.70378e-18 0)
(9.86754 1.68951e-18 0)
(9.86124 1.68205e-18 0)
(9.85493 1.67586e-18 0)
(9.8486 1.67112e-18 0)
(9.84224 1.66756e-18 0)
(9.83588 1.66504e-18 0)
(9.82949 1.66366e-18 0)
(9.82309 1.66072e-18 0)
(9.81667 1.65026e-18 0)
(9.81023 1.63225e-18 0)
(9.80377 1.61261e-18 0)
(9.79729 1.59402e-18 0)
(9.7908 1.57625e-18 0)
(9.78428 1.55929e-18 0)
(9.77775 1.54314e-18 0)
(9.7712 1.52777e-18 0)
(9.76463 1.51321e-18 0)
(9.75805 1.49939e-18 0)
(9.75144 1.48654e-18 0)
(9.74481 1.47156e-18 0)
(9.73817 1.45441e-18 0)
(9.73151 1.4382e-18 0)
(9.72482 1.42244e-18 0)
(9.71812 1.41019e-18 0)
(9.7114 1.40146e-18 0)
(9.70466 1.39315e-18 0)
(9.6979 1.38544e-18 0)
(9.69111 1.37871e-18 0)
(9.68431 1.36682e-18 0)
(9.67749 1.3493e-18 0)
(9.67065 1.33842e-18 0)
(9.66379 1.33423e-18 0)
(9.65691 1.3242e-18 0)
(9.65 1.3118e-18 0)
(9.64308 1.30357e-18 0)
(9.63613 1.28985e-18 0)
(9.62917 1.27066e-18 0)
(9.62218 1.25502e-18 0)
(9.61517 1.24575e-18 0)
(9.60814 1.23677e-18 0)
(9.60109 1.22498e-18 0)
(9.59402 1.21675e-18 0)
(9.58692 1.21208e-18 0)
(9.5798 1.20483e-18 0)
(9.57266 1.195e-18 0)
(9.5655 1.18846e-18 0)
(9.55831 1.18828e-18 0)
(9.5511 1.18857e-18 0)
(9.54387 1.18316e-18 0)
(9.53662 1.17815e-18 0)
(9.52934 1.17944e-18 0)
(9.52204 1.18398e-18 0)
(9.51472 1.18583e-18 0)
(9.50737 1.18514e-18 0)
(9.5 1.18495e-18 0)
(9.49261 1.18504e-18 0)
(9.48519 1.18534e-18 0)
(9.47775 1.18569e-18 0)
(9.47029 1.18578e-18 0)
(9.4628 1.18603e-18 0)
(9.4553 1.1771e-18 0)
(9.44777 1.14847e-18 0)
(9.44022 1.12043e-18 0)
(9.43265 1.11326e-18 0)
(9.42506 1.11674e-18 0)
(9.41746 1.11864e-18 0)
(9.40983 1.1163e-18 0)
(9.40219 1.11268e-18 0)
(9.39454 1.1074e-18 0)
(9.38687 1.09997e-18 0)
(9.37918 1.09672e-18 0)
(9.37148 1.09455e-18 0)
(9.36377 1.0871e-18 0)
(9.35604 1.08068e-18 0)
(9.34828 1.0781e-18 0)
(9.3405 1.0762e-18 0)
(9.33269 1.07277e-18 0)
(9.32484 1.05877e-18 0)
(9.31695 1.03396e-18 0)
(9.30903 1.00991e-18 0)
(9.30107 9.95415e-19 0)
(9.29307 9.84562e-19 0)
(9.28503 9.65537e-19 0)
(9.27696 9.38751e-19 0)
(9.26885 9.09924e-19 0)
(9.26069 8.84317e-19 0)
(9.2525 8.6861e-19 0)
(9.24427 8.50673e-19 0)
(9.23599 8.23923e-19 0)
(9.22767 8.07315e-19 0)
(9.21931 8.00501e-19 0)
(9.21091 7.91796e-19 0)
(9.20247 7.75809e-19 0)
(9.19398 7.5544e-19 0)
(9.18544 7.39843e-19 0)
(9.17686 7.28675e-19 0)
(9.16823 7.18966e-19 0)
(9.15956 7.10943e-19 0)
(9.15084 7.05267e-19 0)
(9.14207 6.93823e-19 0)
(9.13325 6.52892e-19 0)
(9.12438 6.12487e-19 0)
(9.11546 6.05998e-19 0)
(9.10649 6.12744e-19 0)
(9.09747 6.21347e-19 0)
(9.08839 6.29284e-19 0)
(9.07927 6.36428e-19 0)
(9.07008 6.42761e-19 0)
(9.06084 6.45594e-19 0)
(9.05155 6.33033e-19 0)
(9.0422 6.4366e-19 0)
(9.03279 6.53127e-19 0)
(9.02332 6.33659e-19 0)
(9.01379 6.21434e-19 0)
(9.0042 6.0458e-19 0)
(8.99455 5.8323e-19 0)
(8.98484 5.6029e-19 0)
(8.97506 5.35144e-19 0)
(8.96521 5.10484e-19 0)
(8.95531 4.88963e-19 0)
(8.94533 4.70435e-19 0)
(8.93528 4.55513e-19 0)
(8.92517 4.42646e-19 0)
(8.91499 4.17254e-19 0)
(8.90473 3.99983e-19 0)
(8.8944 3.8617e-19 0)
(8.884 3.70795e-19 0)
(8.87352 3.7576e-19 0)
(8.86296 3.79682e-19 0)
(8.85232 3.31704e-19 0)
(8.84161 2.86165e-19 0)
(8.83081 2.94826e-19 0)
(8.81993 3.06645e-19 0)
(8.80897 3.05727e-19 0)
(8.79792 2.74551e-19 0)
(8.78678 2.40853e-19 0)
(8.77555 2.32713e-19 0)
(8.76424 2.32485e-19 0)
(8.75283 2.28113e-19 0)
(8.74132 2.17108e-19 0)
(8.72972 2.02089e-19 0)
(8.71802 1.85145e-19 0)
(8.70622 1.65688e-19 0)
(8.69432 1.38147e-19 0)
(8.68231 1.21749e-19 0)
(8.6702 1.08746e-19 0)
(8.65798 8.79459e-20 0)
(8.64565 7.61434e-20 0)
(8.6332 6.79e-20 0)
(8.62064 6.26252e-20 0)
(8.60796 5.92566e-20 0)
(8.59517 5.7229e-20 0)
(8.58224 5.58593e-20 0)
(8.5692 5.8157e-20 0)
(8.55602 6.06688e-20 0)
(8.54271 6.36168e-20 0)
(8.52927 6.3975e-20 0)
(8.51569 6.08773e-20 0)
(8.50197 6.68749e-20 0)
(8.48811 7.89608e-20 0)
(8.4741 8.50281e-20 0)
(8.45994 8.52038e-20 0)
(8.44563 8.84632e-20 0)
(8.43115 9.79183e-20 0)
(8.41652 1.04163e-19 0)
(8.40172 1.07297e-19 0)
(8.38675 1.14077e-19 0)
(8.3716 1.14786e-19 0)
(8.35628 1.09315e-19 0)
(8.34077 1.06792e-19 0)
(8.32508 1.06806e-19 0)
(8.30919 1.06284e-19 0)
(8.29311 1.05395e-19 0)
(8.27682 1.0427e-19 0)
(8.26032 1.03064e-19 0)
(8.24361 1.02773e-19 0)
(8.22668 9.26995e-20 0)
(8.20952 3.79562e-20 0)
(8.19213 -1.30694e-20 0)
(8.17449 -1.32317e-20 0)
(8.15661 -2.73948e-21 0)
(8.13848 4.86077e-21 0)
(8.12008 1.08069e-20 0)
(8.10141 1.5053e-20 0)
(8.08247 2.07023e-20 0)
(8.06323 2.80687e-20 0)
(8.0437 3.09974e-20 0)
(8.02386 2.94271e-20 0)
(8.00371 2.93358e-20 0)
(7.98323 3.07807e-20 0)
(7.96241 2.77521e-20 0)
(7.94124 1.99579e-20 0)
(7.9197 1.65146e-20 0)
(7.89779 1.69461e-20 0)
(7.87549 2.12539e-20 0)
(7.85279 3.0427e-20 0)
(7.82967 3.53196e-20 0)
(7.80611 3.61527e-20 0)
(7.78211 3.88559e-20 0)
(7.75763 4.63872e-20 0)
(7.73266 5.58917e-20 0)
(7.70718 6.22111e-20 0)
(7.68118 5.57393e-20 0)
(7.65461 4.84456e-20 0)
(7.62747 5.24206e-20 0)
(7.59973 5.7951e-20 0)
(7.57136 6.26745e-20 0)
(7.54232 6.69235e-20 0)
(7.51259 7.04088e-20 0)
(7.48213 7.37551e-20 0)
(7.45091 7.15044e-20 0)
(7.41889 1.99374e-20 0)
(7.38602 -3.36573e-20 0)
(7.35227 -3.90342e-20 0)
(7.31757 -3.99459e-20 0)
(7.28188 -4.22133e-20 0)
(7.24513 -4.56279e-20 0)
(7.20727 -5.04316e-20 0)
(7.16823 -5.69709e-20 0)
(7.12792 -6.53003e-20 0)
(7.08627 -7.74228e-20 0)
(7.04319 -7.0161e-20 0)
(6.99857 -5.94518e-20 0)
(6.9523 -6.31356e-20 0)
(6.90426 -5.8946e-20 0)
(6.85431 -5.15865e-20 0)
(6.80229 -4.08695e-20 0)
(6.74804 -2.70384e-20 0)
(6.69135 -1.02665e-20 0)
(6.632 9.28376e-21 0)
(6.56974 2.67435e-20 0)
(6.50428 2.84526e-20 0)
(6.43528 2.7407e-20 0)
(6.36236 3.90864e-20 0)
(6.28505 5.07809e-20 0)
(6.20283 5.14134e-20 0)
(6.11506 4.99963e-20 0)
(6.02097 4.59303e-20 0)
(5.91966 3.7157e-20 0)
(5.80986 3.46919e-20 0)
(5.68994 3.38994e-20 0)
(5.55795 3.58473e-20 0)
(5.41151 3.94744e-20 0)
(5.24762 4.3758e-20 0)
(5.06236 4.58929e-20 0)
(4.85061 3.03883e-20 0)
(4.60562 1.02192e-20 0)
(4.31843 7.37751e-21 0)
(3.97707 7.44832e-21 0)
(3.5635 6.89929e-21 0)
(3.05658 4.74918e-21 0)
(2.45068 1.91588e-21 0)
(1.77351 1.44372e-22 0)
(1.068 -6.61277e-22 0)
(0.356555 -4.82517e-22 0)
)
;

boundaryField
{
    top_wall
    {
        type            noSlip;
    }
    inlet
    {
        type            cyclic;
    }
    bot_wall
    {
        type            noSlip;
    }
    outlet
    {
        type            cyclic;
    }
    frontAndBack
    {
        type            empty;
    }
}


// ************************************************************************* //
