/*--------------------------------*- C++ -*----------------------------------*\
| =========                 |                                                 |
| \\      /  F ield         | OpenFOAM: The Open Source CFD Toolbox           |
|  \\    /   O peration     | Version:  2312                                  |
|   \\  /    A nd           | Website:  www.openfoam.com                      |
|    \\/     M anipulation  |                                                 |
\*---------------------------------------------------------------------------*/
FoamFile
{
    version     2.0;
    format      ascii;
    arch        "LSB;label=32;scalar=64";
    class       volScalarField;
    location    "26.74";
    object      k;
}
// * * * * * * * * * * * * * * * * * * * * * * * * * * * * * * * * * * * * * //

dimensions      [0 2 -2 0 0 0 0];

internalField   nonuniform List<scalar> 
1000
(
0.000886606
0.000559236
0.0030484
0.0106727
0.0260209
0.0494807
0.0782237
0.108006
0.135653
0.159755
0.180115
0.19709
0.211197
0.222945
0.232773
0.241041
0.248038
0.253993
0.259087
0.263466
0.267246
0.27052
0.273365
0.275843
0.278004
0.279891
0.28154
0.282981
0.284238
0.285333
0.286284
0.287107
0.287815
0.288421
0.288933
0.289363
0.289716
0.290001
0.290222
0.290387
0.290499
0.290563
0.290582
0.290561
0.290501
0.290407
0.290281
0.290125
0.28994
0.28973
0.289495
0.289238
0.288959
0.288661
0.288343
0.288009
0.287657
0.287291
0.286909
0.286514
0.286106
0.285685
0.285253
0.284809
0.284355
0.283892
0.283418
0.282936
0.282445
0.281946
0.281439
0.280925
0.280403
0.279875
0.279341
0.2788
0.278253
0.277701
0.277143
0.27658
0.276012
0.275439
0.274861
0.274279
0.273693
0.273103
0.272509
0.271911
0.271309
0.270704
0.270095
0.269483
0.268868
0.26825
0.267629
0.267005
0.266378
0.265749
0.265117
0.264483
0.263846
0.263206
0.262565
0.261921
0.261275
0.260628
0.259978
0.259326
0.258672
0.258017
0.257359
0.2567
0.25604
0.255377
0.254714
0.254048
0.253381
0.252713
0.252043
0.251372
0.2507
0.250026
0.249351
0.248675
0.247998
0.247319
0.24664
0.245959
0.245278
0.244595
0.243911
0.243227
0.242541
0.241854
0.241167
0.240479
0.23979
0.2391
0.238409
0.237718
0.237026
0.236333
0.23564
0.234946
0.234251
0.233555
0.232859
0.232163
0.231466
0.230768
0.23007
0.229371
0.228672
0.227972
0.227272
0.226572
0.225871
0.22517
0.224468
0.223766
0.223064
0.222361
0.221658
0.220955
0.220251
0.219548
0.218844
0.218139
0.217435
0.21673
0.216026
0.215321
0.214616
0.21391
0.213205
0.2125
0.211794
0.211089
0.210383
0.209677
0.208972
0.208266
0.20756
0.206855
0.206149
0.205443
0.204738
0.204032
0.203327
0.202622
0.201917
0.201212
0.200507
0.199802
0.199098
0.198393
0.197689
0.196985
0.196282
0.195578
0.194875
0.194172
0.19347
0.192767
0.192065
0.191364
0.190662
0.189961
0.189261
0.18856
0.187861
0.187161
0.186462
0.185763
0.185065
0.184368
0.18367
0.182974
0.182277
0.181582
0.180887
0.180192
0.179498
0.178804
0.178111
0.177419
0.176727
0.176036
0.175345
0.174656
0.173966
0.173278
0.17259
0.171903
0.171216
0.170531
0.169846
0.169161
0.168478
0.167795
0.167113
0.166432
0.165752
0.165072
0.164394
0.163716
0.163039
0.162363
0.161688
0.161014
0.16034
0.159668
0.158996
0.158326
0.157656
0.156988
0.15632
0.155654
0.154988
0.154324
0.153661
0.152998
0.152337
0.151677
0.151018
0.15036
0.149703
0.149047
0.148393
0.147739
0.147087
0.146436
0.145786
0.145138
0.144491
0.143844
0.1432
0.142556
0.141914
0.141273
0.140633
0.139995
0.139358
0.138722
0.138088
0.137455
0.136824
0.136193
0.135565
0.134938
0.134312
0.133687
0.133064
0.132443
0.131823
0.131205
0.130588
0.129973
0.129359
0.128747
0.128136
0.127527
0.126919
0.126314
0.125709
0.125107
0.124506
0.123907
0.123309
0.122713
0.122119
0.121526
0.120936
0.120347
0.11976
0.119174
0.11859
0.118009
0.117429
0.11685
0.116274
0.115699
0.115127
0.114556
0.113987
0.11342
0.112855
0.112292
0.111731
0.111172
0.110614
0.110059
0.109506
0.108955
0.108406
0.107859
0.107313
0.10677
0.106229
0.105691
0.105154
0.104619
0.104087
0.103557
0.103029
0.102503
0.101979
0.101457
0.100938
0.100421
0.0999062
0.0993936
0.0988834
0.0983754
0.0978698
0.0973664
0.0968655
0.0963668
0.0958706
0.0953767
0.0948852
0.0943962
0.0939095
0.0934253
0.0929436
0.0924643
0.0919875
0.0915132
0.0910415
0.0905723
0.0901056
0.0896414
0.0891799
0.0887209
0.0882646
0.0878109
0.0873598
0.0869114
0.0864656
0.0860225
0.0855822
0.0851445
0.0847096
0.0842774
0.083848
0.0834214
0.0829975
0.0825765
0.0821583
0.081743
0.0813305
0.0809209
0.0805141
0.0801103
0.0797094
0.0793115
0.0789165
0.0785245
0.0781355
0.0777495
0.0773665
0.0769866
0.0766097
0.0762359
0.0758652
0.0754976
0.0751332
0.0747718
0.0744137
0.0740587
0.0737069
0.0733584
0.073013
0.072671
0.0723321
0.0719966
0.0716644
0.0713355
0.0710099
0.0706877
0.0703688
0.0700534
0.0697413
0.0694327
0.0691275
0.0688258
0.0685275
0.0682328
0.0679415
0.0676538
0.0673697
0.0670891
0.066812
0.0665386
0.0662688
0.0660027
0.0657402
0.0654813
0.0652262
0.0649747
0.064727
0.064483
0.0642428
0.0640063
0.0637736
0.0635448
0.0633197
0.0630985
0.0628812
0.0626677
0.0624581
0.0622524
0.0620506
0.0618528
0.0616589
0.061469
0.0612831
0.0611011
0.0609232
0.0607492
0.0605794
0.0604135
0.0602518
0.0600941
0.0599405
0.059791
0.0596457
0.0595044
0.0593673
0.0592344
0.0591056
0.058981
0.0588606
0.0587445
0.0586325
0.0585247
0.0584212
0.0583219
0.0582268
0.058136
0.0580495
0.0579673
0.0578893
0.0578156
0.0577463
0.0576812
0.0576204
0.057564
0.0575119
0.0574641
0.0574206
0.0573814
0.0573467
0.0573162
0.0572901
0.0572683
0.0572509
0.0572379
0.0572292
0.0572248
0.0572248
0.0572292
0.0572379
0.0572509
0.0572683
0.0572901
0.0573162
0.0573467
0.0573814
0.0574206
0.0574641
0.0575119
0.057564
0.0576204
0.0576812
0.0577463
0.0578156
0.0578893
0.0579673
0.0580495
0.058136
0.0582268
0.0583219
0.0584212
0.0585247
0.0586325
0.0587445
0.0588607
0.0589811
0.0591056
0.0592344
0.0593673
0.0595044
0.0596457
0.059791
0.0599405
0.0600941
0.0602518
0.0604135
0.0605794
0.0607492
0.0609232
0.0611011
0.0612831
0.061469
0.0616589
0.0618528
0.0620506
0.0622524
0.0624581
0.0626677
0.0628812
0.0630985
0.0633197
0.0635448
0.0637737
0.0640063
0.0642428
0.064483
0.064727
0.0649747
0.0652262
0.0654813
0.0657402
0.0660027
0.0662688
0.0665386
0.066812
0.0670891
0.0673697
0.0676538
0.0679415
0.0682328
0.0685275
0.0688258
0.0691275
0.0694327
0.0697413
0.0700534
0.0703688
0.0706877
0.0710099
0.0713355
0.0716644
0.0719966
0.0723321
0.072671
0.073013
0.0733584
0.0737069
0.0740587
0.0744137
0.0747718
0.0751332
0.0754976
0.0758652
0.0762359
0.0766097
0.0769866
0.0773665
0.0777495
0.0781355
0.0785245
0.0789165
0.0793115
0.0797094
0.0801103
0.0805141
0.0809209
0.0813305
0.081743
0.0821583
0.0825765
0.0829975
0.0834214
0.083848
0.0842774
0.0847096
0.0851445
0.0855822
0.0860225
0.0864656
0.0869114
0.0873598
0.0878109
0.0882646
0.088721
0.0891799
0.0896415
0.0901056
0.0905723
0.0910415
0.0915133
0.0919875
0.0924643
0.0929436
0.0934253
0.0939095
0.0943962
0.0948852
0.0953767
0.0958706
0.0963668
0.0968655
0.0973665
0.0978698
0.0983754
0.0988834
0.0993936
0.0999062
0.100421
0.100938
0.101457
0.101979
0.102503
0.103029
0.103557
0.104087
0.104619
0.105154
0.105691
0.10623
0.10677
0.107313
0.107859
0.108406
0.108955
0.109506
0.110059
0.110615
0.111172
0.111731
0.112292
0.112855
0.11342
0.113987
0.114556
0.115127
0.1157
0.116274
0.11685
0.117429
0.118009
0.11859
0.119174
0.11976
0.120347
0.120936
0.121526
0.122119
0.122713
0.123309
0.123907
0.124506
0.125107
0.125709
0.126314
0.126919
0.127527
0.128136
0.128747
0.129359
0.129973
0.130588
0.131205
0.131823
0.132443
0.133065
0.133687
0.134312
0.134938
0.135565
0.136193
0.136824
0.137455
0.138088
0.138722
0.139358
0.139995
0.140633
0.141273
0.141914
0.142556
0.1432
0.143844
0.144491
0.145138
0.145786
0.146436
0.147087
0.147739
0.148393
0.149047
0.149703
0.15036
0.151018
0.151677
0.152337
0.152998
0.153661
0.154324
0.154988
0.155654
0.15632
0.156988
0.157656
0.158326
0.158996
0.159668
0.16034
0.161014
0.161688
0.162363
0.163039
0.163716
0.164394
0.165072
0.165752
0.166432
0.167113
0.167795
0.168478
0.169161
0.169846
0.170531
0.171216
0.171903
0.17259
0.173278
0.173966
0.174656
0.175346
0.176036
0.176727
0.177419
0.178111
0.178804
0.179498
0.180192
0.180887
0.181582
0.182277
0.182974
0.18367
0.184368
0.185065
0.185763
0.186462
0.187161
0.187861
0.18856
0.189261
0.189961
0.190662
0.191364
0.192065
0.192767
0.19347
0.194172
0.194875
0.195578
0.196282
0.196985
0.197689
0.198393
0.199098
0.199802
0.200507
0.201212
0.201917
0.202622
0.203327
0.204032
0.204738
0.205443
0.206149
0.206855
0.20756
0.208266
0.208972
0.209677
0.210383
0.211089
0.211794
0.2125
0.213205
0.21391
0.214616
0.215321
0.216026
0.21673
0.217435
0.218139
0.218844
0.219548
0.220251
0.220955
0.221658
0.222361
0.223064
0.223766
0.224468
0.22517
0.225871
0.226572
0.227272
0.227972
0.228672
0.229371
0.23007
0.230768
0.231466
0.232163
0.232859
0.233555
0.234251
0.234946
0.23564
0.236333
0.237026
0.237718
0.238409
0.2391
0.23979
0.240479
0.241167
0.241854
0.242541
0.243227
0.243911
0.244595
0.245278
0.245959
0.24664
0.247319
0.247998
0.248675
0.249351
0.250026
0.2507
0.251372
0.252043
0.252713
0.253381
0.254048
0.254714
0.255377
0.25604
0.2567
0.257359
0.258017
0.258672
0.259326
0.259978
0.260628
0.261275
0.261921
0.262565
0.263206
0.263846
0.264483
0.265117
0.265749
0.266378
0.267005
0.267629
0.26825
0.268868
0.269483
0.270095
0.270704
0.271309
0.271911
0.272509
0.273103
0.273693
0.274279
0.274861
0.275439
0.276012
0.27658
0.277143
0.277701
0.278253
0.2788
0.279341
0.279875
0.280403
0.280925
0.281439
0.281946
0.282445
0.282936
0.283418
0.283892
0.284355
0.284809
0.285253
0.285685
0.286106
0.286514
0.286909
0.287291
0.287657
0.288009
0.288343
0.288661
0.288959
0.289238
0.289495
0.28973
0.28994
0.290125
0.290281
0.290407
0.290501
0.290561
0.290582
0.290563
0.290499
0.290387
0.290222
0.290001
0.289716
0.289363
0.288933
0.288421
0.287815
0.287107
0.286284
0.285333
0.284238
0.282981
0.28154
0.279891
0.278004
0.275843
0.273365
0.27052
0.267246
0.263466
0.259087
0.253993
0.248038
0.241041
0.232773
0.222945
0.211197
0.19709
0.180115
0.159755
0.135653
0.108006
0.0782238
0.0494807
0.0260209
0.0106727
0.0030484
0.000559236
0.000886606
)
;

boundaryField
{
    top_wall
    {
        type            kLowReWallFunction;
        value           uniform 2.61576e-08;
    }
    inlet
    {
        type            cyclic;
    }
    bot_wall
    {
        type            kLowReWallFunction;
        value           uniform 2.61576e-08;
    }
    outlet
    {
        type            cyclic;
    }
    frontAndBack
    {
        type            empty;
    }
}


// ************************************************************************* //
