/*--------------------------------*- C++ -*----------------------------------*\
| =========                 |                                                 |
| \\      /  F ield         | OpenFOAM: The Open Source CFD Toolbox           |
|  \\    /   O peration     | Version:  2312                                  |
|   \\  /    A nd           | Website:  www.openfoam.com                      |
|    \\/     M anipulation  |                                                 |
\*---------------------------------------------------------------------------*/
FoamFile
{
    version     2.0;
    format      ascii;
    arch        "LSB;label=32;scalar=64";
    class       volVectorField;
    location    "26.74";
    object      U;
}
// * * * * * * * * * * * * * * * * * * * * * * * * * * * * * * * * * * * * * //

dimensions      [0 1 -1 0 0 0 0];

internalField   nonuniform List<vector> 
1000
(
(0.173682 -2.74523e-18 0)
(0.520327 -5.30114e-18 0)
(0.865987 -5.40071e-18 0)
(1.20891 -5.09952e-18 0)
(1.54353 -5.01858e-18 0)
(1.85963 -5.02574e-18 0)
(2.14657 -5.03687e-18 0)
(2.39885 -5.03918e-18 0)
(2.61716 -5.03533e-18 0)
(2.80562 -5.03702e-18 0)
(2.96919 -5.03778e-18 0)
(3.11239 -5.04192e-18 0)
(3.23897 -5.05136e-18 0)
(3.35191 -5.05893e-18 0)
(3.45356 -5.06613e-18 0)
(3.54576 -5.07304e-18 0)
(3.62998 -5.07971e-18 0)
(3.7074 -5.08527e-18 0)
(3.77896 -5.08955e-18 0)
(3.84542 -5.097e-18 0)
(3.90744 -5.09622e-18 0)
(3.96553 -5.09456e-18 0)
(4.02014 -5.10089e-18 0)
(4.07164 -5.11552e-18 0)
(4.12036 -5.13126e-18 0)
(4.16657 -5.13508e-18 0)
(4.21051 -5.135e-18 0)
(4.25238 -5.14084e-18 0)
(4.29236 -5.17881e-18 0)
(4.33061 -5.21497e-18 0)
(4.36726 -5.21827e-18 0)
(4.40246 -5.21895e-18 0)
(4.43629 -5.25457e-18 0)
(4.46887 -5.29044e-18 0)
(4.50027 -5.29268e-18 0)
(4.53059 -5.29067e-18 0)
(4.55989 -5.29578e-18 0)
(4.58823 -5.33483e-18 0)
(4.61568 -5.37245e-18 0)
(4.64228 -5.37723e-18 0)
(4.6681 -5.37695e-18 0)
(4.69316 -5.37779e-18 0)
(4.71753 -5.37917e-18 0)
(4.74122 -5.37971e-18 0)
(4.76429 -5.37957e-18 0)
(4.78675 -5.37892e-18 0)
(4.80864 -5.3779e-18 0)
(4.83 -5.37488e-18 0)
(4.85083 -5.37158e-18 0)
(4.87118 -5.37114e-18 0)
(4.89106 -5.37036e-18 0)
(4.91048 -5.36791e-18 0)
(4.92948 -5.36553e-18 0)
(4.94807 -5.36312e-18 0)
(4.96627 -5.36072e-18 0)
(4.98409 -5.35834e-18 0)
(5.00155 -5.35599e-18 0)
(5.01866 -5.35368e-18 0)
(5.03544 -5.35142e-18 0)
(5.05189 -5.34919e-18 0)
(5.06804 -5.347e-18 0)
(5.08389 -5.34484e-18 0)
(5.09945 -5.34272e-18 0)
(5.11474 -5.34061e-18 0)
(5.12975 -5.33852e-18 0)
(5.14451 -5.33645e-18 0)
(5.15902 -5.33439e-18 0)
(5.17329 -5.33232e-18 0)
(5.18733 -5.33026e-18 0)
(5.20114 -5.3282e-18 0)
(5.21473 -5.32613e-18 0)
(5.22811 -5.32405e-18 0)
(5.24129 -5.32197e-18 0)
(5.25426 -5.31987e-18 0)
(5.26704 -5.31777e-18 0)
(5.27964 -5.31566e-18 0)
(5.29205 -5.31354e-18 0)
(5.30428 -5.31141e-18 0)
(5.31635 -5.30929e-18 0)
(5.32824 -5.30716e-18 0)
(5.33997 -5.30503e-18 0)
(5.35155 -5.30291e-18 0)
(5.36297 -5.30079e-18 0)
(5.37424 -5.29869e-18 0)
(5.38536 -5.29661e-18 0)
(5.39634 -5.29454e-18 0)
(5.40718 -5.2925e-18 0)
(5.41789 -5.29049e-18 0)
(5.42846 -5.28851e-18 0)
(5.4389 -5.28657e-18 0)
(5.44922 -5.28467e-18 0)
(5.45942 -5.28281e-18 0)
(5.46949 -5.28101e-18 0)
(5.47945 -5.27928e-18 0)
(5.48929 -5.27762e-18 0)
(5.49902 -5.27606e-18 0)
(5.50864 -5.27462e-18 0)
(5.51815 -5.27335e-18 0)
(5.52756 -5.27228e-18 0)
(5.53687 -5.27149e-18 0)
(5.54607 -5.27107e-18 0)
(5.55518 -5.27115e-18 0)
(5.56419 -5.27184e-18 0)
(5.5731 -5.27337e-18 0)
(5.58193 -5.27583e-18 0)
(5.59066 -5.28104e-18 0)
(5.5993 -5.29002e-18 0)
(5.60786 -5.29208e-18 0)
(5.61633 -5.27587e-18 0)
(5.62472 -5.26025e-18 0)
(5.63302 -5.26377e-18 0)
(5.64124 -5.2747e-18 0)
(5.64939 -5.2839e-18 0)
(5.65746 -5.29247e-18 0)
(5.66545 -5.30069e-18 0)
(5.67336 -5.30881e-18 0)
(5.68121 -5.31706e-18 0)
(5.68898 -5.32569e-18 0)
(5.69668 -5.33371e-18 0)
(5.7043 -5.33561e-18 0)
(5.71187 -5.32121e-18 0)
(5.71936 -5.30743e-18 0)
(5.72679 -5.3094e-18 0)
(5.73415 -5.31528e-18 0)
(5.74145 -5.3211e-18 0)
(5.74868 -5.32723e-18 0)
(5.75585 -5.33365e-18 0)
(5.76296 -5.34039e-18 0)
(5.77002 -5.34733e-18 0)
(5.77701 -5.35599e-18 0)
(5.78394 -5.36539e-18 0)
(5.79082 -5.36449e-18 0)
(5.79764 -5.34435e-18 0)
(5.8044 -5.32618e-18 0)
(5.81111 -5.32795e-18 0)
(5.81777 -5.33653e-18 0)
(5.82437 -5.33438e-18 0)
(5.83092 -5.29607e-18 0)
(5.83742 -5.25817e-18 0)
(5.84387 -5.25703e-18 0)
(5.85027 -5.26573e-18 0)
(5.85662 -5.26484e-18 0)
(5.86292 -5.24245e-18 0)
(5.86917 -5.22031e-18 0)
(5.87537 -5.22007e-18 0)
(5.88153 -5.22911e-18 0)
(5.88764 -5.23609e-18 0)
(5.89371 -5.24054e-18 0)
(5.89973 -5.2383e-18 0)
(5.90571 -5.22851e-18 0)
(5.91164 -5.21742e-18 0)
(5.91753 -5.21298e-18 0)
(5.92338 -5.21423e-18 0)
(5.92918 -5.21373e-18 0)
(5.93495 -5.21159e-18 0)
(5.94067 -5.21058e-18 0)
(5.94635 -5.211e-18 0)
(5.95199 -5.20018e-18 0)
(5.9576 -5.19323e-18 0)
(5.96316 -5.17514e-18 0)
(5.96869 -5.13888e-18 0)
(5.97417 -5.0997e-18 0)
(5.97962 -5.05762e-18 0)
(5.98503 -5.04054e-18 0)
(5.99041 -5.04014e-18 0)
(5.99575 -5.03815e-18 0)
(6.00105 -5.02449e-18 0)
(6.00632 -4.98318e-18 0)
(6.01155 -4.95514e-18 0)
(6.01675 -4.94178e-18 0)
(6.02191 -4.91471e-18 0)
(6.02704 -4.88116e-18 0)
(6.03213 -4.85633e-18 0)
(6.0372 -4.8467e-18 0)
(6.04223 -4.83701e-18 0)
(6.04722 -4.82155e-18 0)
(6.05219 -4.80034e-18 0)
(6.05712 -4.76304e-18 0)
(6.06202 -4.72683e-18 0)
(6.06689 -4.70514e-18 0)
(6.07173 -4.69325e-18 0)
(6.07654 -4.69405e-18 0)
(6.08131 -4.67563e-18 0)
(6.08606 -4.64891e-18 0)
(6.09078 -4.61685e-18 0)
(6.09547 -4.59754e-18 0)
(6.10013 -4.58905e-18 0)
(6.10476 -4.582e-18 0)
(6.10936 -4.58083e-18 0)
(6.11394 -4.54507e-18 0)
(6.11848 -4.5058e-18 0)
(6.123 -4.46307e-18 0)
(6.12749 -4.42617e-18 0)
(6.13195 -4.4159e-18 0)
(6.13639 -4.40352e-18 0)
(6.1408 -4.37686e-18 0)
(6.14518 -4.34367e-18 0)
(6.14954 -4.31752e-18 0)
(6.15387 -4.29407e-18 0)
(6.15817 -4.27965e-18 0)
(6.16245 -4.25691e-18 0)
(6.16671 -4.20706e-18 0)
(6.17094 -4.16534e-18 0)
(6.17514 -4.14557e-18 0)
(6.17932 -4.16482e-18 0)
(6.18347 -4.17959e-18 0)
(6.1876 -4.16334e-18 0)
(6.19171 -4.14766e-18 0)
(6.19579 -4.13109e-18 0)
(6.19985 -4.11549e-18 0)
(6.20388 -4.07928e-18 0)
(6.2079 -4.08463e-18 0)
(6.21188 -4.10401e-18 0)
(6.21585 -4.10412e-18 0)
(6.21979 -4.11003e-18 0)
(6.22371 -4.10193e-18 0)
(6.22761 -4.09301e-18 0)
(6.23148 -4.07109e-18 0)
(6.23534 -4.04752e-18 0)
(6.23917 -4.03667e-18 0)
(6.24298 -4.02741e-18 0)
(6.24676 -4.04865e-18 0)
(6.25053 -4.05722e-18 0)
(6.25428 -4.03436e-18 0)
(6.258 -4.01238e-18 0)
(6.2617 -3.99005e-18 0)
(6.26538 -3.97537e-18 0)
(6.26904 -3.95975e-18 0)
(6.27268 -3.9269e-18 0)
(6.2763 -3.87854e-18 0)
(6.2799 -3.87801e-18 0)
(6.28348 -3.885e-18 0)
(6.28704 -3.85634e-18 0)
(6.29058 -3.83117e-18 0)
(6.2941 -3.79666e-18 0)
(6.2976 -3.75743e-18 0)
(6.30108 -3.72593e-18 0)
(6.30455 -3.69242e-18 0)
(6.30799 -3.69552e-18 0)
(6.31141 -3.69113e-18 0)
(6.31482 -3.65054e-18 0)
(6.3182 -3.60874e-18 0)
(6.32157 -3.56726e-18 0)
(6.32492 -3.53229e-18 0)
(6.32825 -3.52317e-18 0)
(6.33156 -3.49e-18 0)
(6.33485 -3.44567e-18 0)
(6.33812 -3.44257e-18 0)
(6.34138 -3.4025e-18 0)
(6.34462 -3.36425e-18 0)
(6.34784 -3.3404e-18 0)
(6.35104 -3.28632e-18 0)
(6.35423 -3.22636e-18 0)
(6.3574 -3.15752e-18 0)
(6.36055 -3.08578e-18 0)
(6.36368 -3.03376e-18 0)
(6.3668 -2.99385e-18 0)
(6.36989 -2.94151e-18 0)
(6.37298 -2.86471e-18 0)
(6.37604 -2.78683e-18 0)
(6.37909 -2.73384e-18 0)
(6.38212 -2.70082e-18 0)
(6.38513 -2.66452e-18 0)
(6.38813 -2.61508e-18 0)
(6.39111 -2.57201e-18 0)
(6.39408 -2.55138e-18 0)
(6.39703 -2.54396e-18 0)
(6.39996 -2.56633e-18 0)
(6.40288 -2.55455e-18 0)
(6.40578 -2.52325e-18 0)
(6.40866 -2.51638e-18 0)
(6.41153 -2.53393e-18 0)
(6.41438 -2.54991e-18 0)
(6.41722 -2.52025e-18 0)
(6.42004 -2.49008e-18 0)
(6.42284 -2.45603e-18 0)
(6.42563 -2.4282e-18 0)
(6.42841 -2.40938e-18 0)
(6.43117 -2.38954e-18 0)
(6.43391 -2.40642e-18 0)
(6.43664 -2.41671e-18 0)
(6.43935 -2.3976e-18 0)
(6.44205 -2.39131e-18 0)
(6.44473 -2.38288e-18 0)
(6.4474 -2.37442e-18 0)
(6.45005 -2.35939e-18 0)
(6.45269 -2.35869e-18 0)
(6.45532 -2.35859e-18 0)
(6.45793 -2.34552e-18 0)
(6.46052 -2.33736e-18 0)
(6.4631 -2.32113e-18 0)
(6.46567 -2.29836e-18 0)
(6.46822 -2.26241e-18 0)
(6.47075 -2.22655e-18 0)
(6.47327 -2.20046e-18 0)
(6.47578 -2.17533e-18 0)
(6.47828 -2.15524e-18 0)
(6.48076 -2.12718e-18 0)
(6.48322 -2.07707e-18 0)
(6.48567 -2.02737e-18 0)
(6.48811 -2.0345e-18 0)
(6.49053 -2.05075e-18 0)
(6.49294 -2.02743e-18 0)
(6.49534 -2.00056e-18 0)
(6.49772 -1.96358e-18 0)
(6.50009 -1.92865e-18 0)
(6.50244 -1.90373e-18 0)
(6.50478 -1.87658e-18 0)
(6.50711 -1.84941e-18 0)
(6.50942 -1.83497e-18 0)
(6.51172 -1.81319e-18 0)
(6.51401 -1.77759e-18 0)
(6.51628 -1.75162e-18 0)
(6.51854 -1.73582e-18 0)
(6.52079 -1.72754e-18 0)
(6.52302 -1.72141e-18 0)
(6.52524 -1.71698e-18 0)
(6.52745 -1.7137e-18 0)
(6.52964 -1.71115e-18 0)
(6.53183 -1.709e-18 0)
(6.53399 -1.707e-18 0)
(6.53615 -1.70497e-18 0)
(6.53829 -1.70278e-18 0)
(6.54042 -1.70033e-18 0)
(6.54253 -1.69754e-18 0)
(6.54464 -1.69441e-18 0)
(6.54673 -1.69091e-18 0)
(6.54881 -1.68706e-18 0)
(6.55087 -1.68287e-18 0)
(6.55292 -1.67837e-18 0)
(6.55496 -1.6736e-18 0)
(6.55699 -1.66859e-18 0)
(6.559 -1.66338e-18 0)
(6.561 -1.65801e-18 0)
(6.56299 -1.6525e-18 0)
(6.56497 -1.64688e-18 0)
(6.56693 -1.6412e-18 0)
(6.56889 -1.63546e-18 0)
(6.57083 -1.6297e-18 0)
(6.57275 -1.62394e-18 0)
(6.57467 -1.61819e-18 0)
(6.57657 -1.61247e-18 0)
(6.57846 -1.6068e-18 0)
(6.58034 -1.60118e-18 0)
(6.5822 -1.59562e-18 0)
(6.58406 -1.59013e-18 0)
(6.5859 -1.58472e-18 0)
(6.58773 -1.57938e-18 0)
(6.58954 -1.57414e-18 0)
(6.59135 -1.56898e-18 0)
(6.59314 -1.56391e-18 0)
(6.59492 -1.55893e-18 0)
(6.59669 -1.55404e-18 0)
(6.59845 -1.54924e-18 0)
(6.60019 -1.54453e-18 0)
(6.60192 -1.53991e-18 0)
(6.60364 -1.53537e-18 0)
(6.60535 -1.53091e-18 0)
(6.60705 -1.52654e-18 0)
(6.60873 -1.52224e-18 0)
(6.61041 -1.51802e-18 0)
(6.61207 -1.51388e-18 0)
(6.61372 -1.50981e-18 0)
(6.61536 -1.50582e-18 0)
(6.61698 -1.50189e-18 0)
(6.6186 -1.49804e-18 0)
(6.6202 -1.49425e-18 0)
(6.62179 -1.49053e-18 0)
(6.62337 -1.4869e-18 0)
(6.62493 -1.48333e-18 0)
(6.62649 -1.47983e-18 0)
(6.62803 -1.4764e-18 0)
(6.62956 -1.47304e-18 0)
(6.63108 -1.46975e-18 0)
(6.63259 -1.46652e-18 0)
(6.63409 -1.46335e-18 0)
(6.63558 -1.46024e-18 0)
(6.63705 -1.45719e-18 0)
(6.63851 -1.4542e-18 0)
(6.63996 -1.45127e-18 0)
(6.6414 -1.44839e-18 0)
(6.64283 -1.44556e-18 0)
(6.64424 -1.44278e-18 0)
(6.64565 -1.44005e-18 0)
(6.64704 -1.43737e-18 0)
(6.64842 -1.43473e-18 0)
(6.64979 -1.43214e-18 0)
(6.65115 -1.4296e-18 0)
(6.6525 -1.42709e-18 0)
(6.65383 -1.42463e-18 0)
(6.65516 -1.4222e-18 0)
(6.65647 -1.41981e-18 0)
(6.65777 -1.41746e-18 0)
(6.65906 -1.41514e-18 0)
(6.66033 -1.41286e-18 0)
(6.6616 -1.41062e-18 0)
(6.66285 -1.40842e-18 0)
(6.6641 -1.40625e-18 0)
(6.66533 -1.4041e-18 0)
(6.66655 -1.40199e-18 0)
(6.66776 -1.39991e-18 0)
(6.66895 -1.39787e-18 0)
(6.67014 -1.39585e-18 0)
(6.67131 -1.39386e-18 0)
(6.67247 -1.3919e-18 0)
(6.67362 -1.38996e-18 0)
(6.67476 -1.38804e-18 0)
(6.67589 -1.38615e-18 0)
(6.67701 -1.38428e-18 0)
(6.67811 -1.38242e-18 0)
(6.6792 -1.38058e-18 0)
(6.68028 -1.37876e-18 0)
(6.68135 -1.37695e-18 0)
(6.68241 -1.37516e-18 0)
(6.68346 -1.37338e-18 0)
(6.68449 -1.37161e-18 0)
(6.68552 -1.36984e-18 0)
(6.68653 -1.36809e-18 0)
(6.68753 -1.36635e-18 0)
(6.68852 -1.36462e-18 0)
(6.68949 -1.3629e-18 0)
(6.69046 -1.3612e-18 0)
(6.69141 -1.3595e-18 0)
(6.69235 -1.3578e-18 0)
(6.69328 -1.35612e-18 0)
(6.6942 -1.35443e-18 0)
(6.69511 -1.35276e-18 0)
(6.696 -1.35108e-18 0)
(6.69689 -1.3494e-18 0)
(6.69776 -1.34773e-18 0)
(6.69862 -1.34605e-18 0)
(6.69946 -1.34437e-18 0)
(6.7003 -1.34269e-18 0)
(6.70112 -1.341e-18 0)
(6.70194 -1.33931e-18 0)
(6.70274 -1.33761e-18 0)
(6.70353 -1.3359e-18 0)
(6.7043 -1.33418e-18 0)
(6.70507 -1.33246e-18 0)
(6.70582 -1.33073e-18 0)
(6.70656 -1.32899e-18 0)
(6.70729 -1.32724e-18 0)
(6.70801 -1.32549e-18 0)
(6.70872 -1.32372e-18 0)
(6.70941 -1.32194e-18 0)
(6.71009 -1.32016e-18 0)
(6.71076 -1.31836e-18 0)
(6.71142 -1.31655e-18 0)
(6.71206 -1.31473e-18 0)
(6.7127 -1.31289e-18 0)
(6.71332 -1.31104e-18 0)
(6.71393 -1.30918e-18 0)
(6.71452 -1.3073e-18 0)
(6.71511 -1.3054e-18 0)
(6.71568 -1.30349e-18 0)
(6.71624 -1.30156e-18 0)
(6.71679 -1.29961e-18 0)
(6.71733 -1.29765e-18 0)
(6.71785 -1.29567e-18 0)
(6.71836 -1.29367e-18 0)
(6.71886 -1.29165e-18 0)
(6.71935 -1.28961e-18 0)
(6.71983 -1.28755e-18 0)
(6.72029 -1.28547e-18 0)
(6.72074 -1.28337e-18 0)
(6.72118 -1.28125e-18 0)
(6.7216 -1.27911e-18 0)
(6.72202 -1.27695e-18 0)
(6.72242 -1.27477e-18 0)
(6.72281 -1.27258e-18 0)
(6.72319 -1.27036e-18 0)
(6.72355 -1.26812e-18 0)
(6.7239 -1.26586e-18 0)
(6.72424 -1.26358e-18 0)
(6.72457 -1.26128e-18 0)
(6.72488 -1.25896e-18 0)
(6.72518 -1.25661e-18 0)
(6.72547 -1.25424e-18 0)
(6.72575 -1.25185e-18 0)
(6.72601 -1.24944e-18 0)
(6.72627 -1.247e-18 0)
(6.7265 -1.24455e-18 0)
(6.72673 -1.24207e-18 0)
(6.72695 -1.23956e-18 0)
(6.72715 -1.23704e-18 0)
(6.72734 -1.23449e-18 0)
(6.72751 -1.23192e-18 0)
(6.72768 -1.22932e-18 0)
(6.72783 -1.22671e-18 0)
(6.72797 -1.22407e-18 0)
(6.72809 -1.22141e-18 0)
(6.72821 -1.21873e-18 0)
(6.72831 -1.21603e-18 0)
(6.7284 -1.2133e-18 0)
(6.72847 -1.21055e-18 0)
(6.72854 -1.20778e-18 0)
(6.72859 -1.20499e-18 0)
(6.72862 -1.20217e-18 0)
(6.72865 -1.19934e-18 0)
(6.72866 -1.19648e-18 0)
(6.72866 -1.1936e-18 0)
(6.72865 -1.1907e-18 0)
(6.72862 -1.18777e-18 0)
(6.72859 -1.18483e-18 0)
(6.72854 -1.18186e-18 0)
(6.72847 -1.17888e-18 0)
(6.7284 -1.17587e-18 0)
(6.72831 -1.17285e-18 0)
(6.72821 -1.1698e-18 0)
(6.72809 -1.16674e-18 0)
(6.72797 -1.16366e-18 0)
(6.72783 -1.16055e-18 0)
(6.72768 -1.15744e-18 0)
(6.72751 -1.1543e-18 0)
(6.72734 -1.15114e-18 0)
(6.72715 -1.14797e-18 0)
(6.72695 -1.14478e-18 0)
(6.72673 -1.14158e-18 0)
(6.7265 -1.13836e-18 0)
(6.72627 -1.13513e-18 0)
(6.72601 -1.13189e-18 0)
(6.72575 -1.12863e-18 0)
(6.72547 -1.12535e-18 0)
(6.72518 -1.12207e-18 0)
(6.72488 -1.11877e-18 0)
(6.72457 -1.11547e-18 0)
(6.72424 -1.11215e-18 0)
(6.7239 -1.10883e-18 0)
(6.72355 -1.1055e-18 0)
(6.72319 -1.10216e-18 0)
(6.72281 -1.09882e-18 0)
(6.72242 -1.09547e-18 0)
(6.72202 -1.09212e-18 0)
(6.7216 -1.08876e-18 0)
(6.72118 -1.08541e-18 0)
(6.72074 -1.08205e-18 0)
(6.72029 -1.07869e-18 0)
(6.71983 -1.07533e-18 0)
(6.71935 -1.07197e-18 0)
(6.71886 -1.06862e-18 0)
(6.71836 -1.06528e-18 0)
(6.71785 -1.06195e-18 0)
(6.71733 -1.05862e-18 0)
(6.71679 -1.05531e-18 0)
(6.71624 -1.052e-18 0)
(6.71568 -1.04871e-18 0)
(6.71511 -1.04543e-18 0)
(6.71452 -1.04216e-18 0)
(6.71393 -1.03892e-18 0)
(6.71332 -1.03569e-18 0)
(6.7127 -1.03249e-18 0)
(6.71206 -1.02931e-18 0)
(6.71142 -1.02615e-18 0)
(6.71076 -1.02302e-18 0)
(6.71009 -1.01991e-18 0)
(6.70941 -1.01684e-18 0)
(6.70872 -1.0138e-18 0)
(6.70801 -1.01079e-18 0)
(6.70729 -1.00781e-18 0)
(6.70656 -1.00487e-18 0)
(6.70582 -1.00197e-18 0)
(6.70507 -9.991e-19 0)
(6.7043 -9.96277e-19 0)
(6.70353 -9.93493e-19 0)
(6.70274 -9.9075e-19 0)
(6.70194 -9.8805e-19 0)
(6.70112 -9.85396e-19 0)
(6.7003 -9.82789e-19 0)
(6.69946 -9.80231e-19 0)
(6.69862 -9.77723e-19 0)
(6.69776 -9.75267e-19 0)
(6.69689 -9.72864e-19 0)
(6.696 -9.70515e-19 0)
(6.69511 -9.68221e-19 0)
(6.6942 -9.65984e-19 0)
(6.69328 -9.63803e-19 0)
(6.69235 -9.61679e-19 0)
(6.69141 -9.59613e-19 0)
(6.69046 -9.57605e-19 0)
(6.68949 -9.55655e-19 0)
(6.68852 -9.53762e-19 0)
(6.68753 -9.51927e-19 0)
(6.68653 -9.50149e-19 0)
(6.68552 -9.48427e-19 0)
(6.68449 -9.46761e-19 0)
(6.68346 -9.45151e-19 0)
(6.68241 -9.43594e-19 0)
(6.68135 -9.42091e-19 0)
(6.68028 -9.40641e-19 0)
(6.6792 -9.39242e-19 0)
(6.67811 -9.37894e-19 0)
(6.67701 -9.36596e-19 0)
(6.67589 -9.35348e-19 0)
(6.67476 -9.34149e-19 0)
(6.67362 -9.32999e-19 0)
(6.67247 -9.31898e-19 0)
(6.67131 -9.30848e-19 0)
(6.67014 -9.29848e-19 0)
(6.66895 -9.28901e-19 0)
(6.66776 -9.28008e-19 0)
(6.66655 -9.27169e-19 0)
(6.66533 -9.26387e-19 0)
(6.6641 -9.25663e-19 0)
(6.66285 -9.2499e-19 0)
(6.6616 -9.24368e-19 0)
(6.66033 -9.23794e-19 0)
(6.65906 -9.23266e-19 0)
(6.65777 -9.22776e-19 0)
(6.65647 -9.22315e-19 0)
(6.65516 -9.2187e-19 0)
(6.65383 -9.21431e-19 0)
(6.6525 -9.20973e-19 0)
(6.65115 -9.20471e-19 0)
(6.64979 -9.19896e-19 0)
(6.64842 -9.19206e-19 0)
(6.64704 -9.18349e-19 0)
(6.64565 -9.17271e-19 0)
(6.64424 -9.15904e-19 0)
(6.64283 -9.14175e-19 0)
(6.6414 -9.12002e-19 0)
(6.63996 -9.09283e-19 0)
(6.63851 -9.05914e-19 0)
(6.63705 -9.01778e-19 0)
(6.63558 -8.96748e-19 0)
(6.63409 -8.90684e-19 0)
(6.63259 -8.83431e-19 0)
(6.63108 -8.7482e-19 0)
(6.62956 -8.64685e-19 0)
(6.62803 -8.52851e-19 0)
(6.62649 -8.39145e-19 0)
(6.62493 -8.23208e-19 0)
(6.62337 -8.07222e-19 0)
(6.62179 -8.00666e-19 0)
(6.6202 -7.94115e-19 0)
(6.6186 -7.78156e-19 0)
(6.61698 -7.62273e-19 0)
(6.61536 -7.48645e-19 0)
(6.61372 -7.36912e-19 0)
(6.61207 -7.26903e-19 0)
(6.61041 -7.18424e-19 0)
(6.60873 -7.11308e-19 0)
(6.60705 -7.05401e-19 0)
(6.60535 -7.00548e-19 0)
(6.60364 -6.96606e-19 0)
(6.60192 -6.93448e-19 0)
(6.60019 -6.90946e-19 0)
(6.59845 -6.89004e-19 0)
(6.59669 -6.8751e-19 0)
(6.59492 -6.86382e-19 0)
(6.59314 -6.85554e-19 0)
(6.59135 -6.84956e-19 0)
(6.58954 -6.84531e-19 0)
(6.58773 -6.8422e-19 0)
(6.5859 -6.83988e-19 0)
(6.58406 -6.83811e-19 0)
(6.5822 -6.83656e-19 0)
(6.58034 -6.83499e-19 0)
(6.57846 -6.8332e-19 0)
(6.57657 -6.83108e-19 0)
(6.57467 -6.8285e-19 0)
(6.57275 -6.82542e-19 0)
(6.57083 -6.82178e-19 0)
(6.56889 -6.81756e-19 0)
(6.56693 -6.81271e-19 0)
(6.56497 -6.80724e-19 0)
(6.56299 -6.80112e-19 0)
(6.561 -6.79436e-19 0)
(6.559 -6.78696e-19 0)
(6.55699 -6.77892e-19 0)
(6.55496 -6.77025e-19 0)
(6.55292 -6.76095e-19 0)
(6.55087 -6.75103e-19 0)
(6.54881 -6.74049e-19 0)
(6.54673 -6.72933e-19 0)
(6.54464 -6.71756e-19 0)
(6.54253 -6.70516e-19 0)
(6.54042 -6.69215e-19 0)
(6.53829 -6.67851e-19 0)
(6.53615 -6.66424e-19 0)
(6.53399 -6.64932e-19 0)
(6.53183 -6.63374e-19 0)
(6.52964 -6.61746e-19 0)
(6.52745 -6.60045e-19 0)
(6.52524 -6.58266e-19 0)
(6.52302 -6.56402e-19 0)
(6.52079 -6.54462e-19 0)
(6.51854 -6.52435e-19 0)
(6.51628 -6.50314e-19 0)
(6.51401 -6.48089e-19 0)
(6.51172 -6.4575e-19 0)
(6.50942 -6.43301e-19 0)
(6.50711 -6.40734e-19 0)
(6.50478 -6.38041e-19 0)
(6.50244 -6.35214e-19 0)
(6.50009 -6.32231e-19 0)
(6.49772 -6.29081e-19 0)
(6.49534 -6.2573e-19 0)
(6.49294 -6.2211e-19 0)
(6.49053 -6.18088e-19 0)
(6.48811 -6.1345e-19 0)
(6.48567 -6.07823e-19 0)
(6.48322 -6.00626e-19 0)
(6.48076 -5.90709e-19 0)
(6.47828 -5.85245e-19 0)
(6.47578 -5.99175e-19 0)
(6.47327 -6.14467e-19 0)
(6.47075 -6.13104e-19 0)
(6.46822 -6.10049e-19 0)
(6.46567 -6.12806e-19 0)
(6.4631 -6.17519e-19 0)
(6.46052 -6.20981e-19 0)
(6.45793 -6.23422e-19 0)
(6.45532 -6.24636e-19 0)
(6.45269 -6.2911e-19 0)
(6.45006 -6.15482e-19 0)
(6.4474 -6.00649e-19 0)
(6.44473 -6.0153e-19 0)
(6.44205 -5.96084e-19 0)
(6.43935 -5.9561e-19 0)
(6.43664 -6.1176e-19 0)
(6.43391 -6.22214e-19 0)
(6.43117 -6.10616e-19 0)
(6.42841 -5.94433e-19 0)
(6.42563 -5.79975e-19 0)
(6.42284 -5.66502e-19 0)
(6.42004 -5.5378e-19 0)
(6.41722 -5.41618e-19 0)
(6.41438 -5.29884e-19 0)
(6.41153 -5.18485e-19 0)
(6.40866 -5.07347e-19 0)
(6.40578 -4.96418e-19 0)
(6.40288 -4.85676e-19 0)
(6.39996 -4.75131e-19 0)
(6.39703 -4.64807e-19 0)
(6.39408 -4.54777e-19 0)
(6.39111 -4.45173e-19 0)
(6.38813 -4.36184e-19 0)
(6.38513 -4.28067e-19 0)
(6.38212 -4.21195e-19 0)
(6.37909 -4.16013e-19 0)
(6.37604 -4.13098e-19 0)
(6.37298 -4.12962e-19 0)
(6.36989 -4.19445e-19 0)
(6.3668 -4.10625e-19 0)
(6.36368 -4.0197e-19 0)
(6.36055 -4.09046e-19 0)
(6.3574 -4.09843e-19 0)
(6.35423 -4.08224e-19 0)
(6.35104 -4.0467e-19 0)
(6.34784 -3.99797e-19 0)
(6.34462 -3.9406e-19 0)
(6.34138 -3.87813e-19 0)
(6.33812 -3.81328e-19 0)
(6.33485 -3.74816e-19 0)
(6.33156 -3.68411e-19 0)
(6.32825 -3.62224e-19 0)
(6.32492 -3.5629e-19 0)
(6.32157 -3.50644e-19 0)
(6.3182 -3.45297e-19 0)
(6.31482 -3.40217e-19 0)
(6.31141 -3.35391e-19 0)
(6.30799 -3.30803e-19 0)
(6.30455 -3.26403e-19 0)
(6.30108 -3.22171e-19 0)
(6.2976 -3.18061e-19 0)
(6.2941 -3.14025e-19 0)
(6.29058 -3.10053e-19 0)
(6.28704 -3.06105e-19 0)
(6.28348 -3.02147e-19 0)
(6.2799 -2.98143e-19 0)
(6.27631 -2.94096e-19 0)
(6.27269 -2.89975e-19 0)
(6.26904 -2.85756e-19 0)
(6.26538 -2.81414e-19 0)
(6.2617 -2.76928e-19 0)
(6.258 -2.72281e-19 0)
(6.25428 -2.67485e-19 0)
(6.25053 -2.62523e-19 0)
(6.24676 -2.5738e-19 0)
(6.24298 -2.52041e-19 0)
(6.23917 -2.46495e-19 0)
(6.23534 -2.40734e-19 0)
(6.23148 -2.3475e-19 0)
(6.22761 -2.28541e-19 0)
(6.22371 -2.22106e-19 0)
(6.21979 -2.15452e-19 0)
(6.21585 -2.08588e-19 0)
(6.21188 -2.01528e-19 0)
(6.2079 -1.94293e-19 0)
(6.20388 -1.8691e-19 0)
(6.19985 -1.79416e-19 0)
(6.19579 -1.71858e-19 0)
(6.19171 -1.64302e-19 0)
(6.1876 -1.56796e-19 0)
(6.18347 -1.4945e-19 0)
(6.17932 -1.42364e-19 0)
(6.17514 -1.35674e-19 0)
(6.17094 -1.2955e-19 0)
(6.16671 -1.24208e-19 0)
(6.16245 -1.19874e-19 0)
(6.15817 -1.16788e-19 0)
(6.15387 -1.15155e-19 0)
(6.14954 -1.15161e-19 0)
(6.14518 -1.1692e-19 0)
(6.1408 -1.20127e-19 0)
(6.13639 -1.32105e-19 0)
(6.13195 -1.45903e-19 0)
(6.12749 -1.59851e-19 0)
(6.123 -1.72323e-19 0)
(6.11848 -1.76274e-19 0)
(6.11394 -1.78992e-19 0)
(6.10936 -1.80195e-19 0)
(6.10476 -1.79954e-19 0)
(6.10013 -1.78442e-19 0)
(6.09547 -1.75896e-19 0)
(6.09078 -1.72546e-19 0)
(6.08606 -1.68614e-19 0)
(6.08131 -1.64314e-19 0)
(6.07654 -1.59817e-19 0)
(6.07173 -1.55256e-19 0)
(6.06689 -1.50734e-19 0)
(6.06202 -1.46364e-19 0)
(6.05712 -1.42198e-19 0)
(6.05219 -1.38308e-19 0)
(6.04722 -1.34751e-19 0)
(6.04223 -1.31571e-19 0)
(6.0372 -1.28805e-19 0)
(6.03213 -1.26483e-19 0)
(6.02704 -1.24631e-19 0)
(6.02191 -1.23272e-19 0)
(6.01675 -1.22429e-19 0)
(6.01155 -1.22123e-19 0)
(6.00632 -1.22339e-19 0)
(6.00105 -1.23135e-19 0)
(5.99575 -1.24537e-19 0)
(5.99041 -1.26536e-19 0)
(5.98503 -1.29171e-19 0)
(5.97962 -1.32484e-19 0)
(5.97417 -1.36532e-19 0)
(5.96869 -1.41431e-19 0)
(5.96316 -1.47246e-19 0)
(5.9576 -1.54243e-19 0)
(5.95199 -1.61167e-19 0)
(5.94635 -1.66479e-19 0)
(5.94067 -1.76065e-19 0)
(5.93495 -1.7769e-19 0)
(5.92918 -1.78661e-19 0)
(5.92338 -1.86428e-19 0)
(5.91753 -1.88521e-19 0)
(5.91164 -1.92362e-19 0)
(5.90571 -1.97987e-19 0)
(5.89973 -2.04335e-19 0)
(5.89371 -2.11943e-19 0)
(5.88764 -2.22681e-19 0)
(5.88153 -2.39769e-19 0)
(5.87537 -2.59743e-19 0)
(5.86917 -2.79649e-19 0)
(5.86292 -2.96517e-19 0)
(5.85662 -3.0825e-19 0)
(5.85027 -3.17949e-19 0)
(5.84387 -3.25858e-19 0)
(5.83742 -3.32384e-19 0)
(5.83092 -3.37806e-19 0)
(5.82437 -3.42283e-19 0)
(5.81777 -3.45927e-19 0)
(5.81111 -3.48882e-19 0)
(5.8044 -3.51319e-19 0)
(5.79764 -3.53194e-19 0)
(5.79082 -3.57219e-19 0)
(5.78394 -3.58983e-19 0)
(5.77701 -3.60236e-19 0)
(5.77002 -3.61311e-19 0)
(5.76296 -3.57478e-19 0)
(5.75585 -3.58219e-19 0)
(5.74868 -3.50616e-19 0)
(5.74145 -3.42424e-19 0)
(5.73415 -3.41698e-19 0)
(5.72679 -3.3367e-19 0)
(5.71936 -3.25496e-19 0)
(5.71187 -3.335e-19 0)
(5.7043 -3.41207e-19 0)
(5.69668 -3.30151e-19 0)
(5.68898 -3.16496e-19 0)
(5.68121 -3.06528e-19 0)
(5.67336 -2.99624e-19 0)
(5.66545 -2.94046e-19 0)
(5.65746 -2.89691e-19 0)
(5.64939 -2.86062e-19 0)
(5.64125 -2.86741e-19 0)
(5.63302 -3.01293e-19 0)
(5.62472 -3.17734e-19 0)
(5.61633 -3.24038e-19 0)
(5.60786 -3.28301e-19 0)
(5.5993 -3.32759e-19 0)
(5.59066 -3.37161e-19 0)
(5.58193 -3.41506e-19 0)
(5.5731 -3.4575e-19 0)
(5.56419 -3.49806e-19 0)
(5.55518 -3.53668e-19 0)
(5.54607 -3.57294e-19 0)
(5.53687 -3.60668e-19 0)
(5.52756 -3.63791e-19 0)
(5.51815 -3.66625e-19 0)
(5.50864 -3.69197e-19 0)
(5.49902 -3.71547e-19 0)
(5.48929 -3.73656e-19 0)
(5.47945 -3.75569e-19 0)
(5.46949 -3.77323e-19 0)
(5.45942 -3.78894e-19 0)
(5.44922 -3.80307e-19 0)
(5.4389 -3.81566e-19 0)
(5.42846 -3.8266e-19 0)
(5.41789 -3.83554e-19 0)
(5.40718 -3.84182e-19 0)
(5.39634 -3.84445e-19 0)
(5.38536 -3.84204e-19 0)
(5.37424 -3.83334e-19 0)
(5.36297 -3.81663e-19 0)
(5.35155 -3.78962e-19 0)
(5.33997 -3.75023e-19 0)
(5.32824 -3.69321e-19 0)
(5.31635 -3.65031e-19 0)
(5.30428 -3.768e-19 0)
(5.29205 -3.87908e-19 0)
(5.27964 -3.81386e-19 0)
(5.26704 -3.71804e-19 0)
(5.25426 -3.6233e-19 0)
(5.24129 -3.52404e-19 0)
(5.22811 -3.41706e-19 0)
(5.21473 -3.31418e-19 0)
(5.20114 -3.22805e-19 0)
(5.18733 -3.14158e-19 0)
(5.17329 -3.03848e-19 0)
(5.15902 -2.91833e-19 0)
(5.14451 -2.77853e-19 0)
(5.12975 -2.63201e-19 0)
(5.11474 -2.49233e-19 0)
(5.09945 -2.35792e-19 0)
(5.08389 -2.22832e-19 0)
(5.06804 -2.10319e-19 0)
(5.05189 -1.98233e-19 0)
(5.03544 -1.86558e-19 0)
(5.01866 -1.75175e-19 0)
(5.00155 -1.63921e-19 0)
(4.98409 -1.52635e-19 0)
(4.96627 -1.40896e-19 0)
(4.94807 -1.33714e-19 0)
(4.92948 -1.30923e-19 0)
(4.91048 -1.27995e-19 0)
(4.89106 -1.20491e-19 0)
(4.87118 -1.07717e-19 0)
(4.85083 -9.60656e-20 0)
(4.83 -8.61881e-20 0)
(4.80864 -7.76414e-20 0)
(4.78675 -6.96909e-20 0)
(4.76429 -6.74469e-20 0)
(4.74122 -6.37666e-20 0)
(4.71753 -6.04597e-20 0)
(4.69316 -6.12084e-20 0)
(4.6681 -5.83098e-20 0)
(4.64228 -5.6664e-20 0)
(4.61568 -5.72317e-20 0)
(4.58823 -5.95034e-20 0)
(4.55989 -6.32782e-20 0)
(4.53059 -6.82979e-20 0)
(4.50027 -7.8087e-20 0)
(4.46887 -9.71778e-20 0)
(4.43629 -1.14976e-19 0)
(4.40246 -1.19946e-19 0)
(4.36726 -1.16838e-19 0)
(4.33061 -1.12256e-19 0)
(4.29236 -1.06898e-19 0)
(4.25238 -1.00453e-19 0)
(4.21051 -9.25947e-20 0)
(4.16657 -8.25029e-20 0)
(4.12036 -7.50646e-20 0)
(4.07164 -6.83803e-20 0)
(4.02014 -5.98278e-20 0)
(3.96553 -4.80183e-20 0)
(3.90744 -3.25088e-20 0)
(3.84542 -2.26651e-20 0)
(3.77896 -1.2366e-20 0)
(3.7074 -2.14115e-21 0)
(3.62998 3.0879e-21 0)
(3.54576 8.35601e-21 0)
(3.45356 1.27272e-20 0)
(3.35191 1.62708e-20 0)
(3.23897 1.90742e-20 0)
(3.11239 2.12346e-20 0)
(2.96919 2.10727e-20 0)
(2.80562 1.68271e-20 0)
(2.61716 1.10927e-20 0)
(2.39885 8.39538e-21 0)
(2.14657 8.57074e-21 0)
(1.85963 8.19726e-21 0)
(1.54353 6.33529e-21 0)
(1.20891 3.93996e-21 0)
(0.865987 2.07693e-21 0)
(0.520327 8.41944e-22 0)
(0.173682 2.23508e-22 0)
)
;

boundaryField
{
    top_wall
    {
        type            noSlip;
    }
    inlet
    {
        type            cyclic;
    }
    bot_wall
    {
        type            noSlip;
    }
    outlet
    {
        type            cyclic;
    }
    frontAndBack
    {
        type            empty;
    }
}


// ************************************************************************* //
