/*--------------------------------*- C++ -*----------------------------------*\
| =========                 |                                                 |
| \\      /  F ield         | OpenFOAM: The Open Source CFD Toolbox           |
|  \\    /   O peration     | Version:  2312                                  |
|   \\  /    A nd           | Website:  www.openfoam.com                      |
|    \\/     M anipulation  |                                                 |
\*---------------------------------------------------------------------------*/
FoamFile
{
    version     2.0;
    format      ascii;
    arch        "LSB;label=32;scalar=64";
    class       volScalarField;
    location    "13.01";
    object      k;
}
// * * * * * * * * * * * * * * * * * * * * * * * * * * * * * * * * * * * * * //

dimensions      [0 2 -2 0 0 0 0];

internalField   nonuniform List<scalar> 
1000
(
0.0055521
0.00542451
0.00555776
0.00562987
0.00567128
0.00569603
0.00571068
0.00571871
0.00572214
0.00572224
0.00571984
0.0057155
0.00570964
0.00570256
0.00569447
0.00568554
0.00567592
0.00566569
0.00565496
0.00564378
0.00563221
0.0056203
0.00560808
0.00559559
0.00558286
0.0055699
0.00555674
0.0055434
0.00552989
0.00551623
0.00550242
0.00548847
0.00547441
0.00546022
0.00544593
0.00543153
0.00541704
0.00540246
0.00538778
0.00537303
0.0053582
0.00534329
0.00532832
0.00531328
0.00529817
0.005283
0.00526777
0.00525248
0.00523714
0.00522175
0.0052063
0.00519081
0.00517527
0.00515969
0.00514406
0.0051284
0.00511269
0.00509695
0.00508116
0.00506535
0.00504949
0.00503361
0.00501769
0.00500175
0.00498577
0.00496977
0.00495374
0.00493769
0.00492161
0.00490551
0.00488939
0.00487324
0.00485708
0.0048409
0.00482469
0.00480848
0.00479225
0.004776
0.00475974
0.00474346
0.00472718
0.00471088
0.00469458
0.00467826
0.00466194
0.00464561
0.00462928
0.00461294
0.00459659
0.00458024
0.00456389
0.00454754
0.00453119
0.00451484
0.00449849
0.00448214
0.0044658
0.00444946
0.00443312
0.00441679
0.00440046
0.00438415
0.00436784
0.00435154
0.00433525
0.00431897
0.0043027
0.00428644
0.0042702
0.00425397
0.00423775
0.00422155
0.00420537
0.0041892
0.00417305
0.00415692
0.0041408
0.00412471
0.00410864
0.00409259
0.00407656
0.00406055
0.00404457
0.00402861
0.00401267
0.00399676
0.00398088
0.00396502
0.0039492
0.00393339
0.00391762
0.00390188
0.00388617
0.00387048
0.00385483
0.00383921
0.00382363
0.00380807
0.00379255
0.00377707
0.00376161
0.0037462
0.00373082
0.00371547
0.00370017
0.0036849
0.00366967
0.00365447
0.00363932
0.0036242
0.00360913
0.00359409
0.0035791
0.00356415
0.00354924
0.00353437
0.00351955
0.00350476
0.00349003
0.00347533
0.00346068
0.00344608
0.00343152
0.003417
0.00340254
0.00338811
0.00337374
0.00335941
0.00334513
0.0033309
0.00331672
0.00330258
0.00328849
0.00327446
0.00326047
0.00324653
0.00323264
0.00321881
0.00320502
0.00319128
0.0031776
0.00316397
0.00315039
0.00313686
0.00312338
0.00310996
0.00309659
0.00308327
0.00307
0.00305679
0.00304363
0.00303053
0.00301748
0.00300449
0.00299155
0.00297866
0.00296583
0.00295305
0.00294033
0.00292767
0.00291506
0.00290251
0.00289001
0.00287757
0.00286519
0.00285286
0.00284059
0.00282837
0.00281622
0.00280412
0.00279207
0.00278009
0.00276816
0.00275629
0.00274448
0.00273272
0.00272103
0.00270939
0.00269781
0.00268629
0.00267482
0.00266342
0.00265207
0.00264079
0.00262956
0.00261839
0.00260728
0.00259623
0.00258524
0.00257431
0.00256344
0.00255262
0.00254187
0.00253118
0.00252055
0.00250997
0.00249946
0.00248901
0.00247862
0.00246828
0.00245801
0.0024478
0.00243765
0.00242756
0.00241753
0.00240756
0.00239766
0.00238781
0.00237803
0.0023683
0.00235864
0.00234904
0.0023395
0.00233002
0.0023206
0.00231125
0.00230195
0.00229272
0.00228355
0.00227444
0.0022654
0.00225641
0.00224749
0.00223863
0.00222983
0.00222109
0.00221242
0.00220381
0.00219526
0.00218677
0.00217835
0.00216999
0.00216169
0.00215345
0.00214528
0.00213717
0.00212912
0.00212113
0.00211321
0.00210535
0.00209756
0.00208982
0.00208215
0.00207454
0.002067
0.00205952
0.0020521
0.00204474
0.00203745
0.00203022
0.00202306
0.00201595
0.00200891
0.00200194
0.00199502
0.00198817
0.00198139
0.00197466
0.001968
0.0019614
0.00195486
0.00194839
0.00194198
0.00193563
0.00192935
0.00192313
0.00191697
0.00191087
0.00190484
0.00189887
0.00189296
0.00188711
0.00188132
0.0018756
0.00186994
0.00186434
0.0018588
0.00185332
0.00184791
0.00184255
0.00183726
0.00183203
0.00182685
0.00182174
0.00181669
0.0018117
0.00180677
0.0018019
0.00179709
0.00179233
0.00178764
0.00178301
0.00177843
0.00177391
0.00176945
0.00176505
0.00176071
0.00175642
0.00175219
0.00174802
0.0017439
0.00173984
0.00173584
0.00173189
0.00172799
0.00172415
0.00172037
0.00171664
0.00171296
0.00170934
0.00170577
0.00170225
0.00169879
0.00169537
0.00169201
0.0016887
0.00168544
0.00168223
0.00167908
0.00167597
0.00167291
0.00166989
0.00166693
0.00166402
0.00166115
0.00165833
0.00165555
0.00165282
0.00165014
0.0016475
0.00164491
0.00164236
0.00163986
0.00163739
0.00163497
0.0016326
0.00163026
0.00162797
0.00162572
0.00162351
0.00162133
0.0016192
0.00161711
0.00161505
0.00161304
0.00161106
0.00160912
0.00160721
0.00160534
0.00160351
0.00160171
0.00159995
0.00159822
0.00159652
0.00159486
0.00159323
0.00159163
0.00159007
0.00158853
0.00158703
0.00158556
0.00158411
0.0015827
0.00158132
0.00157996
0.00157863
0.00157734
0.00157606
0.00157482
0.0015736
0.00157241
0.00157124
0.0015701
0.00156898
0.00156789
0.00156682
0.00156577
0.00156475
0.00156375
0.00156278
0.00156182
0.00156089
0.00155997
0.00155908
0.00155821
0.00155736
0.00155653
0.00155572
0.00155493
0.00155415
0.0015534
0.00155266
0.00155194
0.00155124
0.00155055
0.00154989
0.00154923
0.0015486
0.00154798
0.00154738
0.00154679
0.00154621
0.00154566
0.00154511
0.00154458
0.00154406
0.00154356
0.00154307
0.0015426
0.00154214
0.00154169
0.00154125
0.00154082
0.00154041
0.00154001
0.00153962
0.00153924
0.00153888
0.00153852
0.00153818
0.00153784
0.00153752
0.00153721
0.00153691
0.00153661
0.00153633
0.00153606
0.0015358
0.00153554
0.0015353
0.00153506
0.00153484
0.00153462
0.00153441
0.00153421
0.00153402
0.00153384
0.00153367
0.0015335
0.00153334
0.00153319
0.00153305
0.00153292
0.00153279
0.00153267
0.00153256
0.00153246
0.00153236
0.00153228
0.0015322
0.00153212
0.00153206
0.001532
0.00153195
0.00153191
0.00153187
0.00153184
0.00153182
0.0015318
0.0015318
0.0015318
0.0015318
0.00153182
0.00153184
0.00153187
0.0015319
0.00153195
0.001532
0.00153206
0.00153212
0.00153219
0.00153227
0.00153236
0.00153246
0.00153256
0.00153267
0.00153279
0.00153291
0.00153305
0.00153319
0.00153334
0.0015335
0.00153366
0.00153384
0.00153402
0.00153421
0.00153441
0.00153462
0.00153483
0.00153506
0.00153529
0.00153554
0.00153579
0.00153606
0.00153633
0.00153661
0.0015369
0.00153721
0.00153752
0.00153784
0.00153817
0.00153852
0.00153887
0.00153924
0.00153962
0.00154001
0.00154041
0.00154082
0.00154125
0.00154168
0.00154213
0.00154259
0.00154307
0.00154356
0.00154406
0.00154458
0.00154511
0.00154565
0.00154621
0.00154678
0.00154737
0.00154798
0.0015486
0.00154923
0.00154988
0.00155055
0.00155124
0.00155194
0.00155266
0.00155339
0.00155415
0.00155492
0.00155572
0.00155653
0.00155736
0.00155821
0.00155908
0.00155997
0.00156088
0.00156182
0.00156277
0.00156375
0.00156475
0.00156577
0.00156681
0.00156788
0.00156898
0.00157009
0.00157124
0.0015724
0.00157359
0.00157481
0.00157606
0.00157733
0.00157863
0.00157996
0.00158131
0.0015827
0.00158411
0.00158555
0.00158702
0.00158853
0.00159006
0.00159163
0.00159322
0.00159485
0.00159652
0.00159821
0.00159994
0.0016017
0.0016035
0.00160534
0.0016072
0.00160911
0.00161105
0.00161303
0.00161505
0.0016171
0.0016192
0.00162133
0.0016235
0.00162571
0.00162796
0.00163026
0.00163259
0.00163497
0.00163739
0.00163985
0.00164235
0.0016449
0.0016475
0.00165013
0.00165282
0.00165554
0.00165832
0.00166114
0.00166401
0.00166692
0.00166989
0.0016729
0.00167596
0.00167907
0.00168223
0.00168544
0.0016887
0.00169201
0.00169537
0.00169878
0.00170225
0.00170576
0.00170933
0.00171296
0.00171663
0.00172036
0.00172415
0.00172799
0.00173188
0.00173583
0.00173984
0.0017439
0.00174801
0.00175219
0.00175642
0.0017607
0.00176505
0.00176945
0.00177391
0.00177843
0.001783
0.00178764
0.00179233
0.00179708
0.0018019
0.00180677
0.0018117
0.00181669
0.00182174
0.00182685
0.00183202
0.00183726
0.00184255
0.00184791
0.00185332
0.0018588
0.00186434
0.00186994
0.0018756
0.00188132
0.00188711
0.00189296
0.00189887
0.00190484
0.00191087
0.00191697
0.00192313
0.00192935
0.00193563
0.00194198
0.00194839
0.00195487
0.0019614
0.001968
0.00197466
0.00198139
0.00198817
0.00199502
0.00200194
0.00200892
0.00201596
0.00202306
0.00203022
0.00203745
0.00204475
0.0020521
0.00205952
0.002067
0.00207455
0.00208215
0.00208982
0.00209756
0.00210535
0.00211321
0.00212114
0.00212912
0.00213717
0.00214528
0.00215345
0.00216169
0.00216999
0.00217835
0.00218678
0.00219526
0.00220381
0.00221242
0.0022211
0.00222983
0.00223863
0.00224749
0.00225641
0.0022654
0.00227445
0.00228355
0.00229272
0.00230196
0.00231125
0.00232061
0.00233002
0.0023395
0.00234904
0.00235864
0.00236831
0.00237803
0.00238781
0.00239766
0.00240757
0.00241754
0.00242756
0.00243765
0.0024478
0.00245802
0.00246829
0.00247862
0.00248901
0.00249946
0.00250998
0.00252055
0.00253118
0.00254188
0.00255263
0.00256344
0.00257431
0.00258524
0.00259623
0.00260728
0.00261839
0.00262956
0.00264079
0.00265208
0.00266342
0.00267483
0.00268629
0.00269781
0.00270939
0.00272103
0.00273273
0.00274448
0.00275629
0.00276816
0.00278009
0.00279208
0.00280412
0.00281622
0.00282838
0.00284059
0.00285286
0.00286519
0.00287757
0.00289001
0.00290251
0.00291506
0.00292767
0.00294034
0.00295306
0.00296583
0.00297866
0.00299155
0.00300449
0.00301748
0.00303053
0.00304364
0.00305679
0.00307001
0.00308327
0.00309659
0.00310996
0.00312338
0.00313686
0.00315039
0.00316397
0.0031776
0.00319129
0.00320502
0.00321881
0.00323265
0.00324653
0.00326047
0.00327446
0.0032885
0.00330258
0.00331672
0.0033309
0.00334513
0.00335941
0.00337374
0.00338812
0.00340254
0.00341701
0.00343152
0.00344608
0.00346068
0.00347533
0.00349003
0.00350477
0.00351955
0.00353437
0.00354924
0.00356415
0.0035791
0.0035941
0.00360913
0.0036242
0.00363932
0.00365447
0.00366967
0.0036849
0.00370017
0.00371548
0.00373082
0.0037462
0.00376162
0.00377707
0.00379255
0.00380807
0.00382363
0.00383922
0.00385483
0.00387049
0.00388617
0.00390188
0.00391762
0.0039334
0.0039492
0.00396503
0.00398088
0.00399677
0.00401268
0.00402861
0.00404457
0.00406055
0.00407656
0.00409259
0.00410864
0.00412471
0.00414081
0.00415692
0.00417305
0.0041892
0.00420537
0.00422155
0.00423775
0.00425397
0.0042702
0.00428644
0.0043027
0.00431897
0.00433525
0.00435154
0.00436784
0.00438415
0.00440047
0.00441679
0.00443312
0.00444946
0.0044658
0.00448214
0.00449849
0.00451484
0.00453119
0.00454754
0.0045639
0.00458025
0.00459659
0.00461294
0.00462928
0.00464561
0.00466194
0.00467826
0.00469458
0.00471088
0.00472718
0.00474346
0.00475974
0.004776
0.00479225
0.00480848
0.0048247
0.0048409
0.00485708
0.00487324
0.00488939
0.00490551
0.00492161
0.00493769
0.00495374
0.00496977
0.00498577
0.00500175
0.00501769
0.00503361
0.00504949
0.00506535
0.00508116
0.00509695
0.00511269
0.0051284
0.00514407
0.00515969
0.00517527
0.00519081
0.0052063
0.00522175
0.00523714
0.00525248
0.00526777
0.005283
0.00529817
0.00531328
0.00532832
0.0053433
0.0053582
0.00537303
0.00538778
0.00540246
0.00541704
0.00543153
0.00544593
0.00546022
0.00547441
0.00548848
0.00550242
0.00551623
0.00552989
0.0055434
0.00555674
0.0055699
0.00558286
0.00559559
0.00560808
0.0056203
0.00563221
0.00564378
0.00565496
0.00566569
0.00567592
0.00568554
0.00569447
0.00570256
0.00570964
0.0057155
0.00571984
0.00572224
0.00572214
0.00571871
0.00571068
0.00569603
0.00567128
0.00562987
0.00555776
0.00542451
0.0055521
)
;

boundaryField
{
    top_wall
    {
        type            kLowReWallFunction;
        value           uniform 0.00360829;
    }
    inlet
    {
        type            cyclic;
    }
    bot_wall
    {
        type            kLowReWallFunction;
        value           uniform 0.00360829;
    }
    outlet
    {
        type            cyclic;
    }
    frontAndBack
    {
        type            empty;
    }
}


// ************************************************************************* //
