/*--------------------------------*- C++ -*----------------------------------*\
| =========                 |                                                 |
| \\      /  F ield         | OpenFOAM: The Open Source CFD Toolbox           |
|  \\    /   O peration     | Version:  2312                                  |
|   \\  /    A nd           | Website:  www.openfoam.com                      |
|    \\/     M anipulation  |                                                 |
\*---------------------------------------------------------------------------*/
FoamFile
{
    version     2.0;
    format      ascii;
    arch        "LSB;label=32;scalar=64";
    class       volVectorField;
    location    "13.01";
    object      U;
}
// * * * * * * * * * * * * * * * * * * * * * * * * * * * * * * * * * * * * * //

dimensions      [0 1 -1 0 0 0 0];

internalField   nonuniform List<vector> 
1000
(
(0.219783 -3.43608e-18 0)
(0.318724 -3.82747e-18 0)
(0.375013 -3.97871e-18 0)
(0.412665 -3.92856e-18 0)
(0.440752 -3.90956e-18 0)
(0.463119 -3.92819e-18 0)
(0.481706 -3.92422e-18 0)
(0.497614 -3.85441e-18 0)
(0.511528 -3.6791e-18 0)
(0.5239 -3.58396e-18 0)
(0.535045 -3.75911e-18 0)
(0.545192 -3.89925e-18 0)
(0.554508 -3.97197e-18 0)
(0.563125 -4.06242e-18 0)
(0.571144 -4.10047e-18 0)
(0.578645 -4.13617e-18 0)
(0.585696 -4.13396e-18 0)
(0.592348 -4.10739e-18 0)
(0.598647 -4.08645e-18 0)
(0.604631 -4.07155e-18 0)
(0.610332 -4.06088e-18 0)
(0.615776 -4.05314e-18 0)
(0.620987 -4.04739e-18 0)
(0.625986 -4.04298e-18 0)
(0.630791 -4.03943e-18 0)
(0.635417 -4.0364e-18 0)
(0.639877 -4.03365e-18 0)
(0.644186 -4.03103e-18 0)
(0.648352 -4.02844e-18 0)
(0.652386 -4.0258e-18 0)
(0.656298 -4.02309e-18 0)
(0.660094 -4.0203e-18 0)
(0.663782 -4.01742e-18 0)
(0.667369 -4.01446e-18 0)
(0.670861 -4.01145e-18 0)
(0.674262 -4.0084e-18 0)
(0.677579 -4.00535e-18 0)
(0.680816 -4.00231e-18 0)
(0.683976 -3.9993e-18 0)
(0.687064 -3.99636e-18 0)
(0.690083 -3.9935e-18 0)
(0.693037 -3.99074e-18 0)
(0.695929 -3.9881e-18 0)
(0.698762 -3.98559e-18 0)
(0.701537 -3.98323e-18 0)
(0.704259 -3.98103e-18 0)
(0.706929 -3.97899e-18 0)
(0.709549 -3.97714e-18 0)
(0.712122 -3.97546e-18 0)
(0.714649 -3.97397e-18 0)
(0.717132 -3.97268e-18 0)
(0.719573 -3.97158e-18 0)
(0.721974 -3.97068e-18 0)
(0.724335 -3.96997e-18 0)
(0.726659 -3.96946e-18 0)
(0.728946 -3.96915e-18 0)
(0.731199 -3.96903e-18 0)
(0.733418 -3.9691e-18 0)
(0.735604 -3.96937e-18 0)
(0.737758 -3.96982e-18 0)
(0.739882 -3.97046e-18 0)
(0.741976 -3.97128e-18 0)
(0.744042 -3.97228e-18 0)
(0.74608 -3.97344e-18 0)
(0.748091 -3.97478e-18 0)
(0.750076 -3.97628e-18 0)
(0.752035 -3.97794e-18 0)
(0.75397 -3.97975e-18 0)
(0.755881 -3.98171e-18 0)
(0.757769 -3.98382e-18 0)
(0.759634 -3.98607e-18 0)
(0.761477 -3.98845e-18 0)
(0.763299 -3.99096e-18 0)
(0.7651 -3.99359e-18 0)
(0.766881 -3.99635e-18 0)
(0.768641 -3.99922e-18 0)
(0.770383 -4.0022e-18 0)
(0.772106 -4.0053e-18 0)
(0.77381 -4.0085e-18 0)
(0.775496 -4.0118e-18 0)
(0.777165 -4.01521e-18 0)
(0.778817 -4.01872e-18 0)
(0.780452 -4.02233e-18 0)
(0.782071 -4.02603e-18 0)
(0.783674 -4.02984e-18 0)
(0.785261 -4.03375e-18 0)
(0.786833 -4.03776e-18 0)
(0.78839 -4.04189e-18 0)
(0.789933 -4.04612e-18 0)
(0.791461 -4.05047e-18 0)
(0.792975 -4.05495e-18 0)
(0.794476 -4.05957e-18 0)
(0.795963 -4.06433e-18 0)
(0.797436 -4.06925e-18 0)
(0.798897 -4.07433e-18 0)
(0.800346 -4.07961e-18 0)
(0.801781 -4.08508e-18 0)
(0.803205 -4.09078e-18 0)
(0.804617 -4.09673e-18 0)
(0.806016 -4.10295e-18 0)
(0.807405 -4.10946e-18 0)
(0.808782 -4.11631e-18 0)
(0.810148 -4.12352e-18 0)
(0.811502 -4.13112e-18 0)
(0.812847 -4.13917e-18 0)
(0.81418 -4.1477e-18 0)
(0.815504 -4.15677e-18 0)
(0.816817 -4.16642e-18 0)
(0.81812 -4.1767e-18 0)
(0.819413 -4.18768e-18 0)
(0.820696 -4.19888e-18 0)
(0.82197 -4.21084e-18 0)
(0.823235 -4.22355e-18 0)
(0.82449 -4.23702e-18 0)
(0.825736 -4.25132e-18 0)
(0.826973 -4.26602e-18 0)
(0.828202 -4.28114e-18 0)
(0.829421 -4.29665e-18 0)
(0.830632 -4.31299e-18 0)
(0.831835 -4.33011e-18 0)
(0.833029 -4.34747e-18 0)
(0.834215 -4.36498e-18 0)
(0.835393 -4.383e-18 0)
(0.836563 -4.40136e-18 0)
(0.837726 -4.41987e-18 0)
(0.83888 -4.4383e-18 0)
(0.840027 -4.45637e-18 0)
(0.841166 -4.47379e-18 0)
(0.842298 -4.49021e-18 0)
(0.843423 -4.50569e-18 0)
(0.84454 -4.51984e-18 0)
(0.84565 -4.53224e-18 0)
(0.846753 -4.54303e-18 0)
(0.847849 -4.55223e-18 0)
(0.848939 -4.56006e-18 0)
(0.850021 -4.56707e-18 0)
(0.851097 -4.57401e-18 0)
(0.852166 -4.58194e-18 0)
(0.853229 -4.59476e-18 0)
(0.854285 -4.58498e-18 0)
(0.855335 -4.49183e-18 0)
(0.856379 -4.40825e-18 0)
(0.857416 -4.42748e-18 0)
(0.858448 -4.47721e-18 0)
(0.859473 -4.51836e-18 0)
(0.860492 -4.55578e-18 0)
(0.861506 -4.59055e-18 0)
(0.862513 -4.62345e-18 0)
(0.863515 -4.65506e-18 0)
(0.864511 -4.68565e-18 0)
(0.865501 -4.71529e-18 0)
(0.866486 -4.74394e-18 0)
(0.867465 -4.77125e-18 0)
(0.868439 -4.7971e-18 0)
(0.869407 -4.82136e-18 0)
(0.87037 -4.84373e-18 0)
(0.871328 -4.86396e-18 0)
(0.87228 -4.88206e-18 0)
(0.873228 -4.89785e-18 0)
(0.87417 -4.91123e-18 0)
(0.875107 -4.92212e-18 0)
(0.876039 -4.93049e-18 0)
(0.876966 -4.93635e-18 0)
(0.877889 -4.93974e-18 0)
(0.878806 -4.94075e-18 0)
(0.879719 -4.9395e-18 0)
(0.880627 -4.93587e-18 0)
(0.88153 -4.93001e-18 0)
(0.882429 -4.92157e-18 0)
(0.883323 -4.91932e-18 0)
(0.884212 -4.97188e-18 0)
(0.885097 -5.07585e-18 0)
(0.885977 -5.17825e-18 0)
(0.886853 -5.22566e-18 0)
(0.887725 -5.21497e-18 0)
(0.888592 -5.19482e-18 0)
(0.889455 -5.17402e-18 0)
(0.890314 -5.15198e-18 0)
(0.891168 -5.12884e-18 0)
(0.892019 -5.10468e-18 0)
(0.892865 -5.07961e-18 0)
(0.893707 -5.05366e-18 0)
(0.894545 -5.02688e-18 0)
(0.895379 -4.99926e-18 0)
(0.896209 -4.97076e-18 0)
(0.897036 -4.94133e-18 0)
(0.897858 -4.91086e-18 0)
(0.898676 -4.87921e-18 0)
(0.899491 -4.8462e-18 0)
(0.900302 -4.81159e-18 0)
(0.901109 -4.77527e-18 0)
(0.901912 -4.73689e-18 0)
(0.902712 -4.69625e-18 0)
(0.903508 -4.65288e-18 0)
(0.9043 -4.6065e-18 0)
(0.905089 -4.55682e-18 0)
(0.905874 -4.50329e-18 0)
(0.906655 -4.4456e-18 0)
(0.907434 -4.38348e-18 0)
(0.908208 -4.31674e-18 0)
(0.908979 -4.24557e-18 0)
(0.909747 -4.16873e-18 0)
(0.910512 -4.10756e-18 0)
(0.911273 -4.16048e-18 0)
(0.912031 -4.21398e-18 0)
(0.912785 -4.15448e-18 0)
(0.913536 -4.08012e-18 0)
(0.914284 -4.01246e-18 0)
(0.915029 -3.95024e-18 0)
(0.915771 -3.89342e-18 0)
(0.916509 -3.8418e-18 0)
(0.917244 -3.79508e-18 0)
(0.917977 -3.7529e-18 0)
(0.918706 -3.71488e-18 0)
(0.919432 -3.68063e-18 0)
(0.920155 -3.64981e-18 0)
(0.920875 -3.62187e-18 0)
(0.921592 -3.59654e-18 0)
(0.922306 -3.57357e-18 0)
(0.923017 -3.55258e-18 0)
(0.923725 -3.53321e-18 0)
(0.92443 -3.51537e-18 0)
(0.925132 -3.49882e-18 0)
(0.925832 -3.48334e-18 0)
(0.926528 -3.46876e-18 0)
(0.927222 -3.45496e-18 0)
(0.927913 -3.44182e-18 0)
(0.928602 -3.42926e-18 0)
(0.929287 -3.41719e-18 0)
(0.92997 -3.40552e-18 0)
(0.93065 -3.39419e-18 0)
(0.931327 -3.38335e-18 0)
(0.932002 -3.37295e-18 0)
(0.932674 -3.36294e-18 0)
(0.933343 -3.3533e-18 0)
(0.93401 -3.34399e-18 0)
(0.934674 -3.33499e-18 0)
(0.935335 -3.32629e-18 0)
(0.935994 -3.31788e-18 0)
(0.93665 -3.30975e-18 0)
(0.937304 -3.30188e-18 0)
(0.937955 -3.29426e-18 0)
(0.938604 -3.28687e-18 0)
(0.93925 -3.27972e-18 0)
(0.939893 -3.27278e-18 0)
(0.940534 -3.26604e-18 0)
(0.941173 -3.25948e-18 0)
(0.941809 -3.2531e-18 0)
(0.942443 -3.24687e-18 0)
(0.943074 -3.24078e-18 0)
(0.943703 -3.23483e-18 0)
(0.944329 -3.22898e-18 0)
(0.944953 -3.22323e-18 0)
(0.945575 -3.21757e-18 0)
(0.946194 -3.21198e-18 0)
(0.946811 -3.20644e-18 0)
(0.947425 -3.20094e-18 0)
(0.948037 -3.19548e-18 0)
(0.948647 -3.19003e-18 0)
(0.949254 -3.18459e-18 0)
(0.949859 -3.17914e-18 0)
(0.950462 -3.17368e-18 0)
(0.951062 -3.16819e-18 0)
(0.95166 -3.16267e-18 0)
(0.952256 -3.15711e-18 0)
(0.952849 -3.15149e-18 0)
(0.95344 -3.14582e-18 0)
(0.954029 -3.14007e-18 0)
(0.954616 -3.13426e-18 0)
(0.9552 -3.12836e-18 0)
(0.955782 -3.12239e-18 0)
(0.956361 -3.11632e-18 0)
(0.956939 -3.11015e-18 0)
(0.957514 -3.10389e-18 0)
(0.958086 -3.09753e-18 0)
(0.958657 -3.09106e-18 0)
(0.959225 -3.08448e-18 0)
(0.959791 -3.07779e-18 0)
(0.960355 -3.07099e-18 0)
(0.960916 -3.06408e-18 0)
(0.961475 -3.05705e-18 0)
(0.962032 -3.0499e-18 0)
(0.962587 -3.04263e-18 0)
(0.963139 -3.03524e-18 0)
(0.96369 -3.02774e-18 0)
(0.964237 -3.02012e-18 0)
(0.964783 -3.01237e-18 0)
(0.965326 -3.00451e-18 0)
(0.965867 -2.99653e-18 0)
(0.966406 -2.98843e-18 0)
(0.966943 -2.98022e-18 0)
(0.967477 -2.97189e-18 0)
(0.968009 -2.96344e-18 0)
(0.968538 -2.95488e-18 0)
(0.969066 -2.94621e-18 0)
(0.969591 -2.93743e-18 0)
(0.970114 -2.92854e-18 0)
(0.970634 -2.91954e-18 0)
(0.971152 -2.91043e-18 0)
(0.971668 -2.90122e-18 0)
(0.972182 -2.89191e-18 0)
(0.972693 -2.8825e-18 0)
(0.973202 -2.87299e-18 0)
(0.973709 -2.86339e-18 0)
(0.974213 -2.85369e-18 0)
(0.974715 -2.8439e-18 0)
(0.975214 -2.83402e-18 0)
(0.975712 -2.82405e-18 0)
(0.976207 -2.814e-18 0)
(0.976699 -2.80386e-18 0)
(0.977189 -2.79364e-18 0)
(0.977677 -2.78335e-18 0)
(0.978162 -2.77297e-18 0)
(0.978645 -2.76253e-18 0)
(0.979126 -2.75201e-18 0)
(0.979604 -2.74142e-18 0)
(0.980079 -2.73076e-18 0)
(0.980553 -2.72004e-18 0)
(0.981023 -2.70926e-18 0)
(0.981492 -2.69841e-18 0)
(0.981958 -2.6875e-18 0)
(0.982421 -2.67654e-18 0)
(0.982882 -2.66553e-18 0)
(0.983341 -2.65446e-18 0)
(0.983797 -2.64334e-18 0)
(0.98425 -2.63217e-18 0)
(0.984701 -2.62095e-18 0)
(0.985149 -2.6097e-18 0)
(0.985595 -2.59839e-18 0)
(0.986039 -2.58705e-18 0)
(0.986479 -2.57567e-18 0)
(0.986918 -2.56425e-18 0)
(0.987353 -2.5528e-18 0)
(0.987786 -2.54131e-18 0)
(0.988217 -2.52979e-18 0)
(0.988645 -2.51824e-18 0)
(0.98907 -2.50667e-18 0)
(0.989493 -2.49506e-18 0)
(0.989913 -2.48343e-18 0)
(0.99033 -2.47178e-18 0)
(0.990745 -2.46011e-18 0)
(0.991157 -2.44842e-18 0)
(0.991566 -2.4367e-18 0)
(0.991973 -2.42497e-18 0)
(0.992377 -2.41323e-18 0)
(0.992779 -2.40147e-18 0)
(0.993177 -2.38969e-18 0)
(0.993573 -2.37791e-18 0)
(0.993966 -2.36611e-18 0)
(0.994357 -2.35431e-18 0)
(0.994745 -2.34249e-18 0)
(0.99513 -2.33067e-18 0)
(0.995512 -2.31885e-18 0)
(0.995892 -2.30702e-18 0)
(0.996269 -2.29519e-18 0)
(0.996643 -2.28335e-18 0)
(0.997014 -2.27152e-18 0)
(0.997382 -2.25968e-18 0)
(0.997748 -2.24785e-18 0)
(0.998111 -2.23602e-18 0)
(0.998471 -2.22419e-18 0)
(0.998828 -2.21237e-18 0)
(0.999183 -2.20055e-18 0)
(0.999534 -2.18874e-18 0)
(0.999883 -2.17693e-18 0)
(1.00023 -2.16514e-18 0)
(1.00057 -2.15335e-18 0)
(1.00091 -2.14158e-18 0)
(1.00125 -2.12981e-18 0)
(1.00158 -2.11806e-18 0)
(1.00192 -2.10632e-18 0)
(1.00225 -2.09459e-18 0)
(1.00257 -2.08288e-18 0)
(1.00289 -2.07118e-18 0)
(1.00321 -2.0595e-18 0)
(1.00353 -2.04783e-18 0)
(1.00385 -2.03619e-18 0)
(1.00416 -2.02456e-18 0)
(1.00447 -2.01295e-18 0)
(1.00477 -2.00136e-18 0)
(1.00508 -1.98979e-18 0)
(1.00538 -1.97824e-18 0)
(1.00567 -1.96672e-18 0)
(1.00597 -1.95521e-18 0)
(1.00626 -1.94374e-18 0)
(1.00655 -1.93228e-18 0)
(1.00683 -1.92085e-18 0)
(1.00712 -1.90944e-18 0)
(1.0074 -1.89807e-18 0)
(1.00768 -1.88671e-18 0)
(1.00795 -1.87539e-18 0)
(1.00822 -1.86409e-18 0)
(1.00849 -1.85282e-18 0)
(1.00876 -1.84158e-18 0)
(1.00902 -1.83037e-18 0)
(1.00928 -1.81919e-18 0)
(1.00954 -1.80804e-18 0)
(1.00979 -1.79693e-18 0)
(1.01004 -1.78584e-18 0)
(1.01029 -1.77479e-18 0)
(1.01054 -1.76377e-18 0)
(1.01078 -1.75278e-18 0)
(1.01102 -1.74183e-18 0)
(1.01126 -1.73091e-18 0)
(1.01149 -1.72003e-18 0)
(1.01173 -1.70918e-18 0)
(1.01196 -1.69836e-18 0)
(1.01218 -1.68759e-18 0)
(1.01241 -1.67685e-18 0)
(1.01263 -1.66615e-18 0)
(1.01285 -1.65548e-18 0)
(1.01306 -1.64485e-18 0)
(1.01327 -1.63427e-18 0)
(1.01348 -1.62372e-18 0)
(1.01369 -1.6132e-18 0)
(1.01389 -1.60273e-18 0)
(1.0141 -1.5923e-18 0)
(1.0143 -1.58191e-18 0)
(1.01449 -1.57156e-18 0)
(1.01469 -1.56125e-18 0)
(1.01488 -1.55098e-18 0)
(1.01506 -1.54076e-18 0)
(1.01525 -1.53057e-18 0)
(1.01543 -1.52043e-18 0)
(1.01561 -1.51033e-18 0)
(1.01579 -1.50027e-18 0)
(1.01597 -1.49026e-18 0)
(1.01614 -1.48029e-18 0)
(1.01631 -1.47036e-18 0)
(1.01648 -1.46047e-18 0)
(1.01664 -1.45063e-18 0)
(1.0168 -1.44084e-18 0)
(1.01696 -1.43109e-18 0)
(1.01712 -1.42138e-18 0)
(1.01727 -1.41172e-18 0)
(1.01742 -1.4021e-18 0)
(1.01757 -1.39253e-18 0)
(1.01772 -1.38301e-18 0)
(1.01786 -1.37353e-18 0)
(1.018 -1.36409e-18 0)
(1.01814 -1.3547e-18 0)
(1.01828 -1.34536e-18 0)
(1.01841 -1.33607e-18 0)
(1.01855 -1.32682e-18 0)
(1.01867 -1.31762e-18 0)
(1.0188 -1.30846e-18 0)
(1.01892 -1.29935e-18 0)
(1.01905 -1.29029e-18 0)
(1.01917 -1.28128e-18 0)
(1.01928 -1.27231e-18 0)
(1.0194 -1.2634e-18 0)
(1.01951 -1.25454e-18 0)
(1.01962 -1.2457e-18 0)
(1.01972 -1.23689e-18 0)
(1.01983 -1.22811e-18 0)
(1.01993 -1.21936e-18 0)
(1.02003 -1.21065e-18 0)
(1.02013 -1.20199e-18 0)
(1.02022 -1.19337e-18 0)
(1.02032 -1.1848e-18 0)
(1.02041 -1.17625e-18 0)
(1.02049 -1.16773e-18 0)
(1.02058 -1.15923e-18 0)
(1.02066 -1.15077e-18 0)
(1.02074 -1.14236e-18 0)
(1.02082 -1.134e-18 0)
(1.0209 -1.12568e-18 0)
(1.02097 -1.11738e-18 0)
(1.02104 -1.10912e-18 0)
(1.02111 -1.10088e-18 0)
(1.02118 -1.09266e-18 0)
(1.02125 -1.08449e-18 0)
(1.02131 -1.07636e-18 0)
(1.02137 -1.06828e-18 0)
(1.02143 -1.06023e-18 0)
(1.02148 -1.05223e-18 0)
(1.02154 -1.04426e-18 0)
(1.02159 -1.03632e-18 0)
(1.02164 -1.02842e-18 0)
(1.02168 -1.02055e-18 0)
(1.02173 -1.01272e-18 0)
(1.02177 -1.00492e-18 0)
(1.02181 -9.97164e-19 0)
(1.02185 -9.89439e-19 0)
(1.02188 -9.8175e-19 0)
(1.02192 -9.74096e-19 0)
(1.02195 -9.66478e-19 0)
(1.02198 -9.58895e-19 0)
(1.022 -9.51348e-19 0)
(1.02203 -9.43837e-19 0)
(1.02205 -9.36361e-19 0)
(1.02207 -9.2892e-19 0)
(1.02209 -9.21514e-19 0)
(1.0221 -9.14143e-19 0)
(1.02211 -9.06807e-19 0)
(1.02213 -8.99506e-19 0)
(1.02213 -8.9224e-19 0)
(1.02214 -8.85008e-19 0)
(1.02215 -8.77812e-19 0)
(1.02215 -8.70651e-19 0)
(1.02215 -8.63525e-19 0)
(1.02215 -8.56435e-19 0)
(1.02214 -8.49379e-19 0)
(1.02213 -8.42358e-19 0)
(1.02213 -8.35372e-19 0)
(1.02211 -8.28419e-19 0)
(1.0221 -8.215e-19 0)
(1.02209 -8.14614e-19 0)
(1.02207 -8.07762e-19 0)
(1.02205 -8.00943e-19 0)
(1.02203 -7.94157e-19 0)
(1.022 -7.87404e-19 0)
(1.02198 -7.80683e-19 0)
(1.02195 -7.73996e-19 0)
(1.02192 -7.6734e-19 0)
(1.02188 -7.60717e-19 0)
(1.02185 -7.54125e-19 0)
(1.02181 -7.47565e-19 0)
(1.02177 -7.41037e-19 0)
(1.02173 -7.34538e-19 0)
(1.02168 -7.28071e-19 0)
(1.02164 -7.21633e-19 0)
(1.02159 -7.15224e-19 0)
(1.02154 -7.08843e-19 0)
(1.02148 -7.02491e-19 0)
(1.02143 -6.96166e-19 0)
(1.02137 -6.89879e-19 0)
(1.02131 -6.8363e-19 0)
(1.02125 -6.77419e-19 0)
(1.02118 -6.71246e-19 0)
(1.02111 -6.65109e-19 0)
(1.02104 -6.59008e-19 0)
(1.02097 -6.52944e-19 0)
(1.0209 -6.46916e-19 0)
(1.02082 -6.40924e-19 0)
(1.02074 -6.34968e-19 0)
(1.02066 -6.29048e-19 0)
(1.02058 -6.23163e-19 0)
(1.02049 -6.17314e-19 0)
(1.02041 -6.115e-19 0)
(1.02032 -6.05722e-19 0)
(1.02022 -5.99979e-19 0)
(1.02013 -5.94271e-19 0)
(1.02003 -5.88599e-19 0)
(1.01993 -5.82961e-19 0)
(1.01983 -5.77358e-19 0)
(1.01972 -5.71791e-19 0)
(1.01962 -5.66259e-19 0)
(1.01951 -5.60762e-19 0)
(1.0194 -5.55302e-19 0)
(1.01928 -5.49877e-19 0)
(1.01917 -5.4449e-19 0)
(1.01905 -5.39139e-19 0)
(1.01892 -5.33826e-19 0)
(1.0188 -5.2855e-19 0)
(1.01867 -5.23313e-19 0)
(1.01855 -5.18113e-19 0)
(1.01841 -5.12951e-19 0)
(1.01828 -5.07828e-19 0)
(1.01814 -5.02742e-19 0)
(1.018 -4.97694e-19 0)
(1.01786 -4.92684e-19 0)
(1.01772 -4.87711e-19 0)
(1.01757 -4.82776e-19 0)
(1.01742 -4.77879e-19 0)
(1.01727 -4.73018e-19 0)
(1.01712 -4.68195e-19 0)
(1.01696 -4.63408e-19 0)
(1.0168 -4.58658e-19 0)
(1.01664 -4.53945e-19 0)
(1.01648 -4.49268e-19 0)
(1.01631 -4.44627e-19 0)
(1.01614 -4.40022e-19 0)
(1.01597 -4.35453e-19 0)
(1.01579 -4.3092e-19 0)
(1.01561 -4.26423e-19 0)
(1.01543 -4.2196e-19 0)
(1.01525 -4.17533e-19 0)
(1.01506 -4.13142e-19 0)
(1.01488 -4.08785e-19 0)
(1.01469 -4.04463e-19 0)
(1.01449 -4.00175e-19 0)
(1.0143 -3.95922e-19 0)
(1.0141 -3.91704e-19 0)
(1.01389 -3.8752e-19 0)
(1.01369 -3.83369e-19 0)
(1.01348 -3.79253e-19 0)
(1.01327 -3.75171e-19 0)
(1.01306 -3.71122e-19 0)
(1.01285 -3.67107e-19 0)
(1.01263 -3.63125e-19 0)
(1.01241 -3.59177e-19 0)
(1.01218 -3.55262e-19 0)
(1.01196 -3.51379e-19 0)
(1.01173 -3.4753e-19 0)
(1.01149 -3.43713e-19 0)
(1.01126 -3.39928e-19 0)
(1.01102 -3.36176e-19 0)
(1.01078 -3.32457e-19 0)
(1.01054 -3.28769e-19 0)
(1.01029 -3.25113e-19 0)
(1.01004 -3.21489e-19 0)
(1.00979 -3.17897e-19 0)
(1.00954 -3.14337e-19 0)
(1.00928 -3.10807e-19 0)
(1.00902 -3.07309e-19 0)
(1.00876 -3.03842e-19 0)
(1.00849 -3.00406e-19 0)
(1.00822 -2.97001e-19 0)
(1.00795 -2.93626e-19 0)
(1.00768 -2.90282e-19 0)
(1.0074 -2.86968e-19 0)
(1.00712 -2.83684e-19 0)
(1.00684 -2.80431e-19 0)
(1.00655 -2.77207e-19 0)
(1.00626 -2.74013e-19 0)
(1.00597 -2.70848e-19 0)
(1.00567 -2.67713e-19 0)
(1.00538 -2.64607e-19 0)
(1.00508 -2.61531e-19 0)
(1.00477 -2.58483e-19 0)
(1.00447 -2.55464e-19 0)
(1.00416 -2.52474e-19 0)
(1.00385 -2.49512e-19 0)
(1.00353 -2.46579e-19 0)
(1.00321 -2.43674e-19 0)
(1.00289 -2.40797e-19 0)
(1.00257 -2.37947e-19 0)
(1.00225 -2.35126e-19 0)
(1.00192 -2.32332e-19 0)
(1.00158 -2.29566e-19 0)
(1.00125 -2.26826e-19 0)
(1.00091 -2.24114e-19 0)
(1.00057 -2.21429e-19 0)
(1.00023 -2.18771e-19 0)
(0.999883 -2.16139e-19 0)
(0.999534 -2.13534e-19 0)
(0.999183 -2.10955e-19 0)
(0.998828 -2.08402e-19 0)
(0.998471 -2.05875e-19 0)
(0.998111 -2.03374e-19 0)
(0.997748 -2.00899e-19 0)
(0.997382 -1.98449e-19 0)
(0.997014 -1.96024e-19 0)
(0.996643 -1.93625e-19 0)
(0.996269 -1.91251e-19 0)
(0.995892 -1.88901e-19 0)
(0.995512 -1.86576e-19 0)
(0.99513 -1.84276e-19 0)
(0.994745 -1.82e-19 0)
(0.994357 -1.79749e-19 0)
(0.993966 -1.77521e-19 0)
(0.993573 -1.75317e-19 0)
(0.993177 -1.73137e-19 0)
(0.992779 -1.7098e-19 0)
(0.992377 -1.68847e-19 0)
(0.991973 -1.66737e-19 0)
(0.991566 -1.6465e-19 0)
(0.991157 -1.62586e-19 0)
(0.990745 -1.60544e-19 0)
(0.99033 -1.58525e-19 0)
(0.989913 -1.56528e-19 0)
(0.989493 -1.54554e-19 0)
(0.98907 -1.52601e-19 0)
(0.988645 -1.50671e-19 0)
(0.988217 -1.48762e-19 0)
(0.987786 -1.46874e-19 0)
(0.987353 -1.45008e-19 0)
(0.986918 -1.43163e-19 0)
(0.986479 -1.41339e-19 0)
(0.986039 -1.39535e-19 0)
(0.985595 -1.37753e-19 0)
(0.985149 -1.35991e-19 0)
(0.984701 -1.34249e-19 0)
(0.98425 -1.32527e-19 0)
(0.983797 -1.30825e-19 0)
(0.983341 -1.29143e-19 0)
(0.982882 -1.2748e-19 0)
(0.982421 -1.25837e-19 0)
(0.981958 -1.24214e-19 0)
(0.981492 -1.22609e-19 0)
(0.981023 -1.21023e-19 0)
(0.980553 -1.19456e-19 0)
(0.980079 -1.17908e-19 0)
(0.979604 -1.16378e-19 0)
(0.979126 -1.14866e-19 0)
(0.978645 -1.13372e-19 0)
(0.978162 -1.11897e-19 0)
(0.977677 -1.10438e-19 0)
(0.977189 -1.08998e-19 0)
(0.976699 -1.07575e-19 0)
(0.976207 -1.06169e-19 0)
(0.975712 -1.0478e-19 0)
(0.975214 -1.03408e-19 0)
(0.974715 -1.02053e-19 0)
(0.974213 -1.00715e-19 0)
(0.973709 -9.93925e-20 0)
(0.973202 -9.80866e-20 0)
(0.972693 -9.67967e-20 0)
(0.972182 -9.55228e-20 0)
(0.971668 -9.42646e-20 0)
(0.971152 -9.30221e-20 0)
(0.970634 -9.17949e-20 0)
(0.970114 -9.0583e-20 0)
(0.969591 -8.93863e-20 0)
(0.969066 -8.82044e-20 0)
(0.968538 -8.70374e-20 0)
(0.968009 -8.58851e-20 0)
(0.967477 -8.47472e-20 0)
(0.966943 -8.36236e-20 0)
(0.966406 -8.25142e-20 0)
(0.965867 -8.14189e-20 0)
(0.965326 -8.03374e-20 0)
(0.964783 -7.92696e-20 0)
(0.964237 -7.82154e-20 0)
(0.96369 -7.71747e-20 0)
(0.963139 -7.61472e-20 0)
(0.962587 -7.51328e-20 0)
(0.962032 -7.41314e-20 0)
(0.961475 -7.31428e-20 0)
(0.960916 -7.21669e-20 0)
(0.960355 -7.12035e-20 0)
(0.959791 -7.02526e-20 0)
(0.959225 -6.93139e-20 0)
(0.958657 -6.83873e-20 0)
(0.958086 -6.74727e-20 0)
(0.957514 -6.657e-20 0)
(0.956939 -6.56789e-20 0)
(0.956361 -6.47995e-20 0)
(0.955782 -6.39314e-20 0)
(0.9552 -6.30747e-20 0)
(0.954616 -6.22291e-20 0)
(0.954029 -6.13945e-20 0)
(0.95344 -6.05709e-20 0)
(0.952849 -5.9758e-20 0)
(0.952256 -5.89558e-20 0)
(0.95166 -5.8164e-20 0)
(0.951062 -5.73827e-20 0)
(0.950462 -5.66117e-20 0)
(0.949859 -5.58508e-20 0)
(0.949254 -5.50999e-20 0)
(0.948647 -5.43589e-20 0)
(0.948037 -5.36277e-20 0)
(0.947425 -5.29061e-20 0)
(0.946811 -5.21941e-20 0)
(0.946194 -5.14915e-20 0)
(0.945575 -5.07982e-20 0)
(0.944953 -5.01142e-20 0)
(0.944329 -4.94392e-20 0)
(0.943703 -4.87731e-20 0)
(0.943074 -4.81159e-20 0)
(0.942443 -4.74675e-20 0)
(0.941809 -4.68277e-20 0)
(0.941173 -4.61965e-20 0)
(0.940534 -4.55736e-20 0)
(0.939893 -4.49591e-20 0)
(0.93925 -4.43528e-20 0)
(0.938604 -4.37546e-20 0)
(0.937955 -4.31644e-20 0)
(0.937304 -4.25821e-20 0)
(0.93665 -4.20076e-20 0)
(0.935994 -4.14409e-20 0)
(0.935335 -4.08817e-20 0)
(0.934674 -4.03301e-20 0)
(0.93401 -3.97858e-20 0)
(0.933343 -3.92489e-20 0)
(0.932674 -3.87192e-20 0)
(0.932002 -3.81967e-20 0)
(0.931327 -3.76812e-20 0)
(0.93065 -3.71727e-20 0)
(0.92997 -3.6671e-20 0)
(0.929287 -3.61761e-20 0)
(0.928602 -3.56879e-20 0)
(0.927913 -3.52062e-20 0)
(0.927222 -3.47312e-20 0)
(0.926528 -3.42625e-20 0)
(0.925832 -3.38002e-20 0)
(0.925132 -3.33442e-20 0)
(0.92443 -3.28943e-20 0)
(0.923725 -3.24506e-20 0)
(0.923017 -3.20128e-20 0)
(0.922306 -3.15811e-20 0)
(0.921592 -3.11552e-20 0)
(0.920875 -3.07351e-20 0)
(0.920155 -3.03207e-20 0)
(0.919432 -2.99119e-20 0)
(0.918706 -2.95087e-20 0)
(0.917976 -2.91111e-20 0)
(0.917244 -2.87188e-20 0)
(0.916509 -2.83319e-20 0)
(0.915771 -2.79503e-20 0)
(0.915029 -2.75739e-20 0)
(0.914284 -2.72027e-20 0)
(0.913536 -2.68365e-20 0)
(0.912785 -2.64753e-20 0)
(0.912031 -2.61191e-20 0)
(0.911273 -2.57678e-20 0)
(0.910512 -2.54213e-20 0)
(0.909747 -2.50795e-20 0)
(0.908979 -2.47424e-20 0)
(0.908208 -2.441e-20 0)
(0.907434 -2.40821e-20 0)
(0.906655 -2.37587e-20 0)
(0.905874 -2.34398e-20 0)
(0.905089 -2.31253e-20 0)
(0.9043 -2.28151e-20 0)
(0.903507 -2.25091e-20 0)
(0.902712 -2.22074e-20 0)
(0.901912 -2.19099e-20 0)
(0.901109 -2.16164e-20 0)
(0.900302 -2.1327e-20 0)
(0.899491 -2.10416e-20 0)
(0.898676 -2.07602e-20 0)
(0.897858 -2.04826e-20 0)
(0.897036 -2.02089e-20 0)
(0.896209 -1.9939e-20 0)
(0.895379 -1.96728e-20 0)
(0.894545 -1.94103e-20 0)
(0.893707 -1.91514e-20 0)
(0.892865 -1.88962e-20 0)
(0.892019 -1.86445e-20 0)
(0.891168 -1.83963e-20 0)
(0.890314 -1.81515e-20 0)
(0.889455 -1.79101e-20 0)
(0.888592 -1.76721e-20 0)
(0.887725 -1.74375e-20 0)
(0.886853 -1.7206e-20 0)
(0.885977 -1.69779e-20 0)
(0.885097 -1.67529e-20 0)
(0.884212 -1.6531e-20 0)
(0.883323 -1.63123e-20 0)
(0.882429 -1.60966e-20 0)
(0.88153 -1.58839e-20 0)
(0.880627 -1.56742e-20 0)
(0.879719 -1.54675e-20 0)
(0.878806 -1.52636e-20 0)
(0.877889 -1.50626e-20 0)
(0.876966 -1.48645e-20 0)
(0.876039 -1.46691e-20 0)
(0.875107 -1.44765e-20 0)
(0.87417 -1.42866e-20 0)
(0.873228 -1.40993e-20 0)
(0.87228 -1.39148e-20 0)
(0.871328 -1.37328e-20 0)
(0.87037 -1.35534e-20 0)
(0.869407 -1.33765e-20 0)
(0.868439 -1.32021e-20 0)
(0.867465 -1.30302e-20 0)
(0.866486 -1.28607e-20 0)
(0.865501 -1.26937e-20 0)
(0.864511 -1.2529e-20 0)
(0.863515 -1.23666e-20 0)
(0.862513 -1.22066e-20 0)
(0.861506 -1.20488e-20 0)
(0.860492 -1.18933e-20 0)
(0.859473 -1.174e-20 0)
(0.858448 -1.15889e-20 0)
(0.857416 -1.144e-20 0)
(0.856379 -1.12932e-20 0)
(0.855335 -1.11485e-20 0)
(0.854285 -1.10059e-20 0)
(0.853229 -1.08653e-20 0)
(0.852166 -1.07267e-20 0)
(0.851097 -1.05901e-20 0)
(0.850021 -1.04555e-20 0)
(0.848939 -1.03229e-20 0)
(0.847849 -1.01921e-20 0)
(0.846753 -1.00633e-20 0)
(0.84565 -9.93627e-21 0)
(0.84454 -9.81112e-21 0)
(0.843423 -9.68777e-21 0)
(0.842298 -9.56622e-21 0)
(0.841166 -9.44643e-21 0)
(0.840027 -9.32838e-21 0)
(0.83888 -9.21205e-21 0)
(0.837726 -9.09742e-21 0)
(0.836563 -8.98446e-21 0)
(0.835393 -8.87315e-21 0)
(0.834215 -8.76347e-21 0)
(0.833029 -8.6554e-21 0)
(0.831835 -8.54891e-21 0)
(0.830632 -8.44398e-21 0)
(0.829421 -8.3406e-21 0)
(0.828202 -8.23874e-21 0)
(0.826973 -8.13838e-21 0)
(0.825736 -8.0395e-21 0)
(0.82449 -7.94208e-21 0)
(0.823235 -7.8461e-21 0)
(0.82197 -7.75154e-21 0)
(0.820696 -7.65838e-21 0)
(0.819413 -7.56661e-21 0)
(0.81812 -7.4762e-21 0)
(0.816817 -7.38714e-21 0)
(0.815504 -7.2994e-21 0)
(0.81418 -7.21297e-21 0)
(0.812847 -7.12784e-21 0)
(0.811502 -7.04397e-21 0)
(0.810148 -6.96137e-21 0)
(0.808782 -6.88e-21 0)
(0.807405 -6.79985e-21 0)
(0.806016 -6.7209e-21 0)
(0.804617 -6.64315e-21 0)
(0.803205 -6.56656e-21 0)
(0.801781 -6.49113e-21 0)
(0.800346 -6.41684e-21 0)
(0.798897 -6.34367e-21 0)
(0.797436 -6.2716e-21 0)
(0.795963 -6.20063e-21 0)
(0.794476 -6.13073e-21 0)
(0.792975 -6.06189e-21 0)
(0.791461 -5.9941e-21 0)
(0.789933 -5.92733e-21 0)
(0.78839 -5.86158e-21 0)
(0.786833 -5.79683e-21 0)
(0.785261 -5.73307e-21 0)
(0.783674 -5.67027e-21 0)
(0.782071 -5.60844e-21 0)
(0.780452 -5.54754e-21 0)
(0.778817 -5.48757e-21 0)
(0.777165 -5.42852e-21 0)
(0.775496 -5.37036e-21 0)
(0.77381 -5.31309e-21 0)
(0.772106 -5.25669e-21 0)
(0.770383 -5.20115e-21 0)
(0.768641 -5.14646e-21 0)
(0.766881 -5.09259e-21 0)
(0.7651 -5.03955e-21 0)
(0.763299 -4.98731e-21 0)
(0.761477 -4.93585e-21 0)
(0.759634 -4.88518e-21 0)
(0.757769 -4.83527e-21 0)
(0.755881 -4.78611e-21 0)
(0.75397 -4.73769e-21 0)
(0.752035 -4.68999e-21 0)
(0.750076 -4.643e-21 0)
(0.748091 -4.59671e-21 0)
(0.74608 -4.5511e-21 0)
(0.744042 -4.50617e-21 0)
(0.741976 -4.46189e-21 0)
(0.739882 -4.41825e-21 0)
(0.737758 -4.37525e-21 0)
(0.735604 -4.33286e-21 0)
(0.733418 -4.29107e-21 0)
(0.731199 -4.24987e-21 0)
(0.728946 -4.20925e-21 0)
(0.726659 -4.16919e-21 0)
(0.724335 -4.12967e-21 0)
(0.721974 -4.09068e-21 0)
(0.719573 -4.05221e-21 0)
(0.717132 -4.01423e-21 0)
(0.714649 -3.97675e-21 0)
(0.712122 -3.93973e-21 0)
(0.709549 -3.90316e-21 0)
(0.706929 -3.86703e-21 0)
(0.704259 -3.83131e-21 0)
(0.701537 -3.79599e-21 0)
(0.698762 -3.76106e-21 0)
(0.695929 -3.72648e-21 0)
(0.693037 -3.69225e-21 0)
(0.690083 -3.65834e-21 0)
(0.687064 -3.62472e-21 0)
(0.683976 -3.59139e-21 0)
(0.680816 -3.5583e-21 0)
(0.677579 -3.52544e-21 0)
(0.674262 -3.49277e-21 0)
(0.670861 -3.46028e-21 0)
(0.667369 -3.42792e-21 0)
(0.663782 -3.39567e-21 0)
(0.660094 -3.3635e-21 0)
(0.656298 -3.33135e-21 0)
(0.652386 -3.2992e-21 0)
(0.648352 -3.26699e-21 0)
(0.644186 -3.23469e-21 0)
(0.639877 -3.20222e-21 0)
(0.635417 -3.16955e-21 0)
(0.630791 -3.13659e-21 0)
(0.625986 -3.10329e-21 0)
(0.620987 -3.06955e-21 0)
(0.615776 -3.03528e-21 0)
(0.610332 -3.00039e-21 0)
(0.604631 -2.96475e-21 0)
(0.598647 -2.92823e-21 0)
(0.592348 -2.89066e-21 0)
(0.585696 -2.85186e-21 0)
(0.578645 -2.81161e-21 0)
(0.571144 -2.76964e-21 0)
(0.563125 -2.72564e-21 0)
(0.554508 -2.67921e-21 0)
(0.545192 -2.62985e-21 0)
(0.535045 -2.57695e-21 0)
(0.5239 -2.51967e-21 0)
(0.511528 -2.45693e-21 0)
(0.497614 -2.38721e-21 0)
(0.481706 -2.30835e-21 0)
(0.463119 -2.21705e-21 0)
(0.440752 -2.10806e-21 0)
(0.412665 -1.9721e-21 0)
(0.375013 -1.79082e-21 0)
(0.318724 -1.52093e-21 0)
(0.219783 -1.04802e-21 0)
)
;

boundaryField
{
    top_wall
    {
        type            noSlip;
    }
    inlet
    {
        type            cyclic;
    }
    bot_wall
    {
        type            noSlip;
    }
    outlet
    {
        type            cyclic;
    }
    frontAndBack
    {
        type            empty;
    }
}


// ************************************************************************* //
