/*--------------------------------*- C++ -*----------------------------------*\
| =========                 |                                                 |
| \\      /  F ield         | OpenFOAM: The Open Source CFD Toolbox           |
|  \\    /   O peration     | Version:  2312                                  |
|   \\  /    A nd           | Website:  www.openfoam.com                      |
|    \\/     M anipulation  |                                                 |
\*---------------------------------------------------------------------------*/
FoamFile
{
    version     2.0;
    format      ascii;
    arch        "LSB;label=32;scalar=64";
    class       volScalarField;
    location    "0.895";
    object      k;
}
// * * * * * * * * * * * * * * * * * * * * * * * * * * * * * * * * * * * * * //

dimensions      [0 2 -2 0 0 0 0];

internalField   nonuniform List<scalar> 
1000
(
0.0999347
0.104953
0.128501
0.151267
0.169245
0.182949
0.193406
0.201441
0.207641
0.212424
0.216089
0.218854
0.220882
0.222297
0.223196
0.223655
0.223734
0.223482
0.222941
0.222144
0.221118
0.219888
0.218473
0.216893
0.215161
0.213292
0.211297
0.209187
0.206971
0.204658
0.202256
0.199771
0.197211
0.194581
0.191887
0.189135
0.186329
0.183473
0.180573
0.177632
0.174654
0.171644
0.168604
0.165538
0.162451
0.159344
0.156221
0.153085
0.149939
0.146787
0.14363
0.140471
0.137314
0.13416
0.131013
0.127874
0.124747
0.121632
0.118534
0.115453
0.112393
0.109355
0.106341
0.103353
0.100394
0.0974652
0.0945683
0.0917054
0.0888782
0.0860884
0.0833379
0.0806281
0.0779609
0.0753377
0.0727601
0.0702296
0.0677478
0.0653161
0.062936
0.0606089
0.0583362
0.0561193
0.0539597
0.0518587
0.0498177
0.0478381
0.0459214
0.0440689
0.0422819
0.0405619
0.0389101
0.0373278
0.0358162
0.0343764
0.0330093
0.0317157
0.030496
0.0293505
0.0282791
0.0272813
0.0263562
0.0255025
0.0247184
0.0240018
0.02335
0.0227602
0.022229
0.0217529
0.0213282
0.0209511
0.0206174
0.0203233
0.020065
0.0198384
0.0196401
0.0194665
0.0193142
0.0191801
0.0190615
0.0189554
0.0188596
0.0187716
0.0186894
0.018611
0.0185346
0.0184586
0.0183815
0.0183018
0.0182184
0.0181301
0.0180357
0.0179345
0.0178254
0.0177078
0.0175809
0.0174441
0.0172969
0.0171389
0.0169697
0.0167891
0.0165968
0.0163928
0.0161772
0.01595
0.0157115
0.015462
0.015202
0.0149322
0.0146533
0.0143662
0.014072
0.013772
0.0134674
0.0131599
0.0128512
0.0125431
0.0122374
0.0119362
0.0116414
0.0113551
0.011079
0.0108148
0.010564
0.0103279
0.0101072
0.00990255
0.00971415
0.00954188
0.00938535
0.00924392
0.00911676
0.00900292
0.00890135
0.00881098
0.00873075
0.00865962
0.00859661
0.00854083
0.00849143
0.00844767
0.00840888
0.00837444
0.00834384
0.0083166
0.00829232
0.00827064
0.00825124
0.00823386
0.00821825
0.00820421
0.00819155
0.00818013
0.00816979
0.00816043
0.00815193
0.00814421
0.00813717
0.00813076
0.0081249
0.00811954
0.00811463
0.00811013
0.008106
0.00810221
0.00809872
0.0080955
0.00809254
0.00808981
0.00808728
0.00808495
0.00808279
0.0080808
0.00807895
0.00807724
0.00807566
0.00807419
0.00807282
0.00807156
0.00807038
0.00806929
0.00806828
0.00806734
0.00806646
0.00806565
0.0080649
0.00806419
0.00806354
0.00806293
0.00806237
0.00806185
0.00806136
0.00806091
0.00806048
0.00806009
0.00805973
0.00805939
0.00805907
0.00805878
0.00805851
0.00805826
0.00805802
0.0080578
0.0080576
0.00805741
0.00805724
0.00805708
0.00805693
0.00805679
0.00805666
0.00805654
0.00805642
0.00805632
0.00805623
0.00805614
0.00805605
0.00805598
0.00805591
0.00805584
0.00805578
0.00805572
0.00805567
0.00805562
0.00805558
0.00805554
0.0080555
0.00805547
0.00805543
0.0080554
0.00805538
0.00805535
0.00805533
0.0080553
0.00805528
0.00805526
0.00805525
0.00805523
0.00805522
0.0080552
0.00805519
0.00805518
0.00805517
0.00805516
0.00805515
0.00805514
0.00805513
0.00805513
0.00805512
0.00805512
0.00805511
0.0080551
0.0080551
0.0080551
0.00805509
0.00805509
0.00805509
0.00805508
0.00805508
0.00805508
0.00805507
0.00805507
0.00805507
0.00805507
0.00805507
0.00805507
0.00805506
0.00805506
0.00805506
0.00805506
0.00805506
0.00805506
0.00805506
0.00805506
0.00805506
0.00805506
0.00805506
0.00805505
0.00805505
0.00805505
0.00805505
0.00805505
0.00805505
0.00805505
0.00805505
0.00805505
0.00805505
0.00805505
0.00805505
0.00805505
0.00805505
0.00805505
0.00805505
0.00805505
0.00805505
0.00805505
0.00805505
0.00805505
0.00805505
0.00805505
0.00805505
0.00805505
0.00805505
0.00805505
0.00805505
0.00805505
0.00805505
0.00805505
0.00805505
0.00805505
0.00805505
0.00805505
0.00805505
0.00805505
0.00805505
0.00805505
0.00805505
0.00805505
0.00805505
0.00805505
0.00805505
0.00805505
0.00805505
0.00805505
0.00805505
0.00805505
0.00805505
0.00805505
0.00805505
0.00805505
0.00805505
0.00805505
0.00805505
0.00805505
0.00805505
0.00805505
0.00805505
0.00805505
0.00805505
0.00805505
0.00805505
0.00805505
0.00805505
0.00805505
0.00805505
0.00805505
0.00805505
0.00805505
0.00805505
0.00805505
0.00805505
0.00805505
0.00805505
0.00805505
0.00805505
0.00805505
0.00805505
0.00805505
0.00805505
0.00805505
0.00805505
0.00805505
0.00805505
0.00805505
0.00805505
0.00805505
0.00805505
0.00805505
0.00805505
0.00805505
0.00805505
0.00805505
0.00805505
0.00805505
0.00805505
0.00805505
0.00805505
0.00805505
0.00805505
0.00805505
0.00805505
0.00805505
0.00805505
0.00805505
0.00805505
0.00805505
0.00805505
0.00805505
0.00805505
0.00805505
0.00805505
0.00805505
0.00805505
0.00805505
0.00805505
0.00805505
0.00805505
0.00805505
0.00805505
0.00805505
0.00805505
0.00805505
0.00805505
0.00805505
0.00805505
0.00805505
0.00805505
0.00805505
0.00805505
0.00805505
0.00805505
0.00805505
0.00805505
0.00805505
0.00805505
0.00805505
0.00805505
0.00805505
0.00805505
0.00805505
0.00805505
0.00805505
0.00805505
0.00805505
0.00805505
0.00805505
0.00805505
0.00805505
0.00805505
0.00805505
0.00805505
0.00805505
0.00805505
0.00805505
0.00805505
0.00805505
0.00805505
0.00805505
0.00805505
0.00805505
0.00805505
0.00805505
0.00805505
0.00805505
0.00805505
0.00805505
0.00805505
0.00805505
0.00805505
0.00805505
0.00805505
0.00805505
0.00805505
0.00805505
0.00805505
0.00805505
0.00805505
0.00805505
0.00805505
0.00805505
0.00805505
0.00805505
0.00805505
0.00805505
0.00805505
0.00805505
0.00805505
0.00805505
0.00805505
0.00805505
0.00805505
0.00805505
0.00805505
0.00805505
0.00805505
0.00805505
0.00805505
0.00805505
0.00805505
0.00805505
0.00805505
0.00805505
0.00805505
0.00805505
0.00805505
0.00805505
0.00805505
0.00805505
0.00805505
0.00805505
0.00805505
0.00805505
0.00805505
0.00805505
0.00805505
0.00805505
0.00805505
0.00805505
0.00805505
0.00805505
0.00805505
0.00805505
0.00805505
0.00805505
0.00805505
0.00805505
0.00805505
0.00805505
0.00805505
0.00805505
0.00805505
0.00805505
0.00805505
0.00805505
0.00805505
0.00805505
0.00805505
0.00805505
0.00805505
0.00805505
0.00805505
0.00805505
0.00805505
0.00805505
0.00805505
0.00805505
0.00805505
0.00805505
0.00805505
0.00805505
0.00805505
0.00805505
0.00805505
0.00805505
0.00805505
0.00805505
0.00805505
0.00805505
0.00805505
0.00805505
0.00805505
0.00805505
0.00805505
0.00805505
0.00805505
0.00805505
0.00805505
0.00805505
0.00805505
0.00805505
0.00805505
0.00805505
0.00805505
0.00805505
0.00805505
0.00805505
0.00805505
0.00805505
0.00805505
0.00805505
0.00805505
0.00805505
0.00805505
0.00805505
0.00805505
0.00805505
0.00805505
0.00805505
0.00805505
0.00805505
0.00805505
0.00805505
0.00805505
0.00805505
0.00805505
0.00805505
0.00805505
0.00805505
0.00805505
0.00805505
0.00805505
0.00805505
0.00805505
0.00805505
0.00805505
0.00805505
0.00805505
0.00805505
0.00805505
0.00805505
0.00805505
0.00805505
0.00805505
0.00805505
0.00805505
0.00805505
0.00805505
0.00805505
0.00805505
0.00805505
0.00805505
0.00805505
0.00805505
0.00805505
0.00805505
0.00805505
0.00805505
0.00805505
0.00805505
0.00805505
0.00805505
0.00805505
0.00805505
0.00805505
0.00805505
0.00805505
0.00805505
0.00805505
0.00805505
0.00805505
0.00805505
0.00805505
0.00805505
0.00805505
0.00805505
0.00805505
0.00805505
0.00805505
0.00805505
0.00805505
0.00805505
0.00805505
0.00805505
0.00805505
0.00805505
0.00805505
0.00805505
0.00805505
0.00805505
0.00805505
0.00805505
0.00805505
0.00805505
0.00805505
0.00805505
0.00805505
0.00805505
0.00805506
0.00805506
0.00805506
0.00805506
0.00805506
0.00805506
0.00805506
0.00805506
0.00805506
0.00805506
0.00805506
0.00805507
0.00805507
0.00805507
0.00805507
0.00805507
0.00805507
0.00805508
0.00805508
0.00805508
0.00805509
0.00805509
0.00805509
0.0080551
0.0080551
0.0080551
0.00805511
0.00805512
0.00805512
0.00805513
0.00805513
0.00805514
0.00805515
0.00805516
0.00805517
0.00805518
0.00805519
0.0080552
0.00805522
0.00805523
0.00805525
0.00805526
0.00805528
0.0080553
0.00805533
0.00805535
0.00805538
0.0080554
0.00805543
0.00805547
0.0080555
0.00805554
0.00805558
0.00805562
0.00805567
0.00805572
0.00805578
0.00805584
0.00805591
0.00805598
0.00805605
0.00805614
0.00805623
0.00805632
0.00805642
0.00805654
0.00805666
0.00805679
0.00805693
0.00805708
0.00805724
0.00805741
0.0080576
0.0080578
0.00805802
0.00805826
0.00805851
0.00805878
0.00805907
0.00805939
0.00805973
0.00806009
0.00806048
0.00806091
0.00806136
0.00806185
0.00806237
0.00806293
0.00806354
0.00806419
0.0080649
0.00806565
0.00806646
0.00806734
0.00806828
0.00806929
0.00807038
0.00807156
0.00807282
0.00807418
0.00807565
0.00807724
0.00807895
0.0080808
0.00808279
0.00808495
0.00808728
0.00808981
0.00809254
0.0080955
0.00809872
0.00810221
0.008106
0.00811013
0.00811463
0.00811954
0.00812489
0.00813075
0.00813717
0.0081442
0.00815193
0.00816042
0.00816979
0.00818012
0.00819155
0.0082042
0.00821824
0.00823385
0.00825123
0.00827063
0.00829231
0.00831659
0.00834382
0.00837442
0.00840886
0.00844765
0.00849141
0.0085408
0.00859658
0.00865958
0.0087307
0.00881093
0.00890129
0.00900285
0.00911669
0.00924384
0.00938526
0.00954178
0.00971403
0.00990242
0.0101071
0.0103277
0.0105639
0.0108146
0.0110788
0.0113549
0.0116412
0.011936
0.0122372
0.0125428
0.012851
0.0131597
0.0134672
0.0137717
0.0140718
0.014366
0.0146531
0.014932
0.0152018
0.0154618
0.0157113
0.0159498
0.016177
0.0163927
0.0165966
0.0167889
0.0169695
0.0171387
0.0172967
0.0174439
0.0175807
0.0177076
0.0178253
0.0179343
0.0180356
0.0181299
0.0182183
0.0183017
0.0183814
0.0184585
0.0185345
0.0186109
0.0186893
0.0187715
0.0188595
0.0189553
0.0190614
0.01918
0.0193141
0.0194664
0.01964
0.0198384
0.0200649
0.0203233
0.0206173
0.020951
0.0213282
0.0217529
0.0222289
0.0227601
0.0233499
0.0240017
0.0247183
0.0255024
0.0263561
0.0272812
0.028279
0.0293504
0.0304959
0.0317156
0.0330092
0.0343763
0.0358161
0.0373276
0.0389099
0.0405617
0.0422817
0.0440687
0.0459212
0.047838
0.0498175
0.0518585
0.0539595
0.0561191
0.058336
0.0606087
0.0629358
0.0653159
0.0677476
0.0702294
0.0727599
0.0753374
0.0779606
0.0806279
0.0833376
0.0860882
0.0888779
0.0917051
0.094568
0.0974649
0.100394
0.103353
0.106341
0.109355
0.112393
0.115453
0.118534
0.121632
0.124746
0.127874
0.131013
0.13416
0.137314
0.140471
0.143629
0.146786
0.149939
0.153085
0.15622
0.159343
0.16245
0.165538
0.168603
0.171643
0.174654
0.177631
0.180572
0.183473
0.186328
0.189134
0.191887
0.194581
0.197211
0.199771
0.202255
0.204657
0.20697
0.209186
0.211296
0.213291
0.215161
0.216892
0.218473
0.219887
0.221117
0.222143
0.222941
0.223482
0.223733
0.223654
0.223195
0.222296
0.220881
0.218853
0.216089
0.212424
0.207641
0.20144
0.193406
0.182948
0.169245
0.151266
0.128501
0.104952
0.0999344
)
;

boundaryField
{
    top_wall
    {
        type            kLowReWallFunction;
        value           uniform 0.000322804;
    }
    inlet
    {
        type            cyclic;
    }
    bot_wall
    {
        type            kLowReWallFunction;
        value           uniform 0.000322805;
    }
    outlet
    {
        type            cyclic;
    }
    frontAndBack
    {
        type            empty;
    }
}


// ************************************************************************* //
