/*--------------------------------*- C++ -*----------------------------------*\
| =========                 |                                                 |
| \\      /  F ield         | OpenFOAM: The Open Source CFD Toolbox           |
|  \\    /   O peration     | Version:  2312                                  |
|   \\  /    A nd           | Website:  www.openfoam.com                      |
|    \\/     M anipulation  |                                                 |
\*---------------------------------------------------------------------------*/
FoamFile
{
    version     2.0;
    format      ascii;
    arch        "LSB;label=32;scalar=64";
    class       volScalarField;
    location    "0.895";
    object      nut;
}
// * * * * * * * * * * * * * * * * * * * * * * * * * * * * * * * * * * * * * //

dimensions      [0 2 -1 0 0 0 0];

internalField   nonuniform List<scalar> 
1000
(
1.66407e-06
3.46132e-06
7.3907e-06
1.25282e-05
1.79685e-05
2.33329e-05
2.84949e-05
3.34175e-05
3.80952e-05
4.25338e-05
4.67426e-05
5.0732e-05
5.45121e-05
5.80924e-05
6.14816e-05
6.46879e-05
6.77187e-05
7.05807e-05
7.32803e-05
7.58234e-05
7.82155e-05
8.04617e-05
8.25668e-05
8.45354e-05
8.63719e-05
8.80802e-05
8.96645e-05
9.11283e-05
9.24754e-05
9.3709e-05
9.48327e-05
9.58495e-05
9.67627e-05
9.7575e-05
9.82896e-05
9.89091e-05
9.94364e-05
9.98741e-05
0.000100225
0.000100491
0.000100675
0.000100779
0.000100807
0.000100759
0.000100638
0.000100447
0.000100188
9.98618e-05
9.94718e-05
9.90196e-05
9.85073e-05
9.79368e-05
9.731e-05
9.66289e-05
9.58952e-05
9.51109e-05
9.42778e-05
9.33977e-05
9.24723e-05
9.15034e-05
9.04927e-05
8.94421e-05
8.83532e-05
8.72277e-05
8.60673e-05
8.48738e-05
8.36489e-05
8.23943e-05
8.11118e-05
7.98031e-05
7.847e-05
7.71144e-05
7.57382e-05
7.43434e-05
7.29319e-05
7.1506e-05
7.00677e-05
6.86196e-05
6.71641e-05
6.57039e-05
6.42417e-05
6.27807e-05
6.13242e-05
5.98757e-05
5.8439e-05
5.70183e-05
5.5618e-05
5.42429e-05
5.2898e-05
5.15888e-05
5.03209e-05
4.91002e-05
4.79327e-05
4.68246e-05
4.57819e-05
4.48103e-05
4.39152e-05
4.31016e-05
4.23735e-05
4.17341e-05
4.11857e-05
4.07293e-05
4.0365e-05
4.00916e-05
3.99073e-05
3.98093e-05
3.97938e-05
3.98558e-05
3.99894e-05
4.01874e-05
4.04417e-05
4.07435e-05
4.10835e-05
4.14523e-05
4.18407e-05
4.22399e-05
4.2642e-05
4.30398e-05
4.34272e-05
4.37994e-05
4.41524e-05
4.44835e-05
4.47908e-05
4.50735e-05
4.53314e-05
4.55649e-05
4.57753e-05
4.5964e-05
4.6133e-05
4.62846e-05
4.64213e-05
4.6546e-05
4.66617e-05
4.67717e-05
4.68793e-05
4.69884e-05
4.71028e-05
4.72268e-05
4.73649e-05
4.75222e-05
4.77042e-05
4.79168e-05
4.81666e-05
4.84613e-05
4.88091e-05
4.92195e-05
4.97032e-05
5.02725e-05
5.09415e-05
5.17261e-05
5.2645e-05
5.37196e-05
5.49745e-05
5.64383e-05
5.81442e-05
6.01301e-05
6.24402e-05
6.51249e-05
6.8242e-05
7.18574e-05
7.6045e-05
8.0888e-05
8.64782e-05
9.29162e-05
0.00010031
0.000108776
0.000118433
0.000129406
0.000141817
0.00015579
0.000171441
0.000188877
0.000208196
0.000229479
0.000252794
0.000278185
0.000305679
0.000335281
0.000366971
0.00040071
0.000436435
0.000474061
0.000513487
0.00055459
0.000597235
0.00064127
0.000686536
0.000732863
0.000780076
0.000827997
0.000876447
0.000925247
0.000974224
0.00102321
0.00107204
0.00112056
0.00116863
0.00121611
0.00126288
0.00130883
0.00135386
0.00139787
0.0014408
0.00148257
0.00152313
0.00156243
0.00160045
0.00163715
0.00167251
0.00170653
0.00173921
0.00177055
0.00180055
0.00182925
0.00185665
0.00188279
0.00190768
0.00193137
0.00195388
0.00197525
0.00199551
0.00201471
0.00203289
0.00205008
0.00206631
0.00208165
0.00209611
0.00210974
0.00212258
0.00213467
0.00214604
0.00215673
0.00216677
0.0021762
0.00218504
0.00219334
0.00220111
0.00220839
0.00221521
0.0022216
0.00222757
0.00223315
0.00223837
0.00224324
0.00224779
0.00225204
0.002256
0.0022597
0.00226315
0.00226636
0.00226935
0.00227214
0.00227473
0.00227715
0.0022794
0.00228149
0.00228343
0.00228523
0.00228691
0.00228847
0.00228992
0.00229126
0.00229251
0.00229367
0.00229474
0.00229573
0.00229666
0.00229751
0.0022983
0.00229904
0.00229971
0.00230034
0.00230093
0.00230146
0.00230196
0.00230242
0.00230285
0.00230324
0.00230361
0.00230394
0.00230425
0.00230454
0.0023048
0.00230505
0.00230527
0.00230548
0.00230567
0.00230585
0.00230601
0.00230616
0.0023063
0.00230642
0.00230654
0.00230665
0.00230675
0.00230684
0.00230692
0.002307
0.00230707
0.00230714
0.0023072
0.00230725
0.0023073
0.00230735
0.00230739
0.00230743
0.00230747
0.0023075
0.00230753
0.00230756
0.00230759
0.00230761
0.00230763
0.00230765
0.00230767
0.00230768
0.0023077
0.00230771
0.00230773
0.00230774
0.00230775
0.00230776
0.00230777
0.00230777
0.00230778
0.00230779
0.00230779
0.0023078
0.00230781
0.00230781
0.00230781
0.00230782
0.00230782
0.00230783
0.00230783
0.00230783
0.00230783
0.00230784
0.00230784
0.00230784
0.00230784
0.00230784
0.00230784
0.00230785
0.00230785
0.00230785
0.00230785
0.00230785
0.00230785
0.00230785
0.00230785
0.00230785
0.00230785
0.00230785
0.00230785
0.00230785
0.00230785
0.00230786
0.00230786
0.00230786
0.00230786
0.00230786
0.00230786
0.00230786
0.00230786
0.00230786
0.00230786
0.00230786
0.00230786
0.00230786
0.00230786
0.00230786
0.00230786
0.00230786
0.00230786
0.00230786
0.00230786
0.00230786
0.00230786
0.00230786
0.00230786
0.00230786
0.00230786
0.00230786
0.00230786
0.00230786
0.00230786
0.00230786
0.00230786
0.00230786
0.00230786
0.00230786
0.00230786
0.00230786
0.00230786
0.00230786
0.00230786
0.00230786
0.00230786
0.00230786
0.00230786
0.00230786
0.00230786
0.00230786
0.00230786
0.00230786
0.00230786
0.00230786
0.00230786
0.00230786
0.00230786
0.00230786
0.00230786
0.00230786
0.00230786
0.00230786
0.00230786
0.00230786
0.00230786
0.00230786
0.00230786
0.00230786
0.00230786
0.00230786
0.00230786
0.00230786
0.00230786
0.00230786
0.00230786
0.00230786
0.00230786
0.00230786
0.00230786
0.00230786
0.00230786
0.00230786
0.00230786
0.00230786
0.00230786
0.00230786
0.00230786
0.00230786
0.00230786
0.00230786
0.00230786
0.00230786
0.00230786
0.00230786
0.00230786
0.00230786
0.00230786
0.00230786
0.00230786
0.00230786
0.00230786
0.00230786
0.00230786
0.00230786
0.00230786
0.00230786
0.00230786
0.00230786
0.00230786
0.00230786
0.00230786
0.00230786
0.00230786
0.00230786
0.00230786
0.00230786
0.00230786
0.00230786
0.00230786
0.00230786
0.00230786
0.00230786
0.00230786
0.00230786
0.00230786
0.00230786
0.00230786
0.00230786
0.00230786
0.00230786
0.00230786
0.00230786
0.00230786
0.00230786
0.00230786
0.00230786
0.00230786
0.00230786
0.00230786
0.00230786
0.00230786
0.00230786
0.00230786
0.00230786
0.00230786
0.00230786
0.00230786
0.00230786
0.00230786
0.00230786
0.00230786
0.00230786
0.00230786
0.00230786
0.00230786
0.00230786
0.00230786
0.00230786
0.00230786
0.00230786
0.00230786
0.00230786
0.00230786
0.00230786
0.00230786
0.00230786
0.00230786
0.00230786
0.00230786
0.00230786
0.00230786
0.00230786
0.00230786
0.00230786
0.00230786
0.00230786
0.00230786
0.00230786
0.00230786
0.00230786
0.00230786
0.00230786
0.00230786
0.00230786
0.00230786
0.00230786
0.00230786
0.00230786
0.00230786
0.00230786
0.00230786
0.00230786
0.00230786
0.00230786
0.00230786
0.00230786
0.00230786
0.00230786
0.00230786
0.00230786
0.00230786
0.00230786
0.00230786
0.00230786
0.00230786
0.00230786
0.00230786
0.00230786
0.00230786
0.00230786
0.00230786
0.00230786
0.00230786
0.00230786
0.00230786
0.00230786
0.00230786
0.00230786
0.00230786
0.00230786
0.00230786
0.00230786
0.00230786
0.00230786
0.00230786
0.00230786
0.00230786
0.00230786
0.00230786
0.00230786
0.00230786
0.00230786
0.00230786
0.00230786
0.00230786
0.00230786
0.00230786
0.00230786
0.00230786
0.00230786
0.00230786
0.00230786
0.00230786
0.00230786
0.00230786
0.00230786
0.00230786
0.00230786
0.00230786
0.00230786
0.00230786
0.00230786
0.00230786
0.00230786
0.00230786
0.00230786
0.00230786
0.00230786
0.00230786
0.00230786
0.00230786
0.00230786
0.00230786
0.00230786
0.00230786
0.00230786
0.00230786
0.00230786
0.00230786
0.00230786
0.00230786
0.00230786
0.00230786
0.00230786
0.00230786
0.00230786
0.00230786
0.00230786
0.00230786
0.00230786
0.00230786
0.00230786
0.00230786
0.00230786
0.00230786
0.00230786
0.00230786
0.00230786
0.00230786
0.00230785
0.00230785
0.00230785
0.00230785
0.00230785
0.00230785
0.00230785
0.00230785
0.00230785
0.00230785
0.00230785
0.00230785
0.00230785
0.00230785
0.00230784
0.00230784
0.00230784
0.00230784
0.00230784
0.00230784
0.00230783
0.00230783
0.00230783
0.00230783
0.00230782
0.00230782
0.00230781
0.00230781
0.00230781
0.0023078
0.00230779
0.00230779
0.00230778
0.00230777
0.00230777
0.00230776
0.00230775
0.00230774
0.00230773
0.00230771
0.0023077
0.00230768
0.00230767
0.00230765
0.00230763
0.00230761
0.00230759
0.00230756
0.00230753
0.0023075
0.00230747
0.00230743
0.00230739
0.00230735
0.0023073
0.00230725
0.0023072
0.00230714
0.00230707
0.002307
0.00230692
0.00230684
0.00230675
0.00230665
0.00230654
0.00230642
0.0023063
0.00230616
0.00230601
0.00230585
0.00230567
0.00230548
0.00230527
0.00230505
0.0023048
0.00230454
0.00230425
0.00230394
0.00230361
0.00230324
0.00230285
0.00230242
0.00230196
0.00230146
0.00230093
0.00230034
0.00229972
0.00229904
0.0022983
0.00229751
0.00229666
0.00229573
0.00229474
0.00229367
0.00229251
0.00229126
0.00228992
0.00228847
0.00228691
0.00228524
0.00228343
0.00228149
0.0022794
0.00227715
0.00227474
0.00227214
0.00226935
0.00226636
0.00226315
0.0022597
0.00225601
0.00225204
0.00224779
0.00224324
0.00223837
0.00223315
0.00222757
0.0022216
0.00221522
0.0022084
0.00220111
0.00219334
0.00218504
0.0021762
0.00216677
0.00215673
0.00214605
0.00213468
0.00212259
0.00210975
0.00209612
0.00208165
0.00206632
0.00205008
0.0020329
0.00201472
0.00199552
0.00197526
0.00195389
0.00193138
0.0019077
0.0018828
0.00185667
0.00182927
0.00180057
0.00177056
0.00173923
0.00170655
0.00167253
0.00163717
0.00160047
0.00156246
0.00152315
0.00148259
0.00144082
0.0013979
0.00135389
0.00130886
0.00126291
0.00121614
0.00116866
0.00112059
0.00107207
0.00102324
0.000974253
0.000925276
0.000876476
0.000828026
0.000780105
0.000732892
0.000686564
0.000641298
0.000597261
0.000554616
0.000513512
0.000474086
0.000436458
0.000400732
0.000366992
0.0003353
0.000305697
0.000278202
0.000252809
0.000229494
0.000208209
0.000188889
0.000171452
0.0001558
0.000141826
0.000129413
0.00011844
0.000108782
0.000100316
9.2921e-05
8.64825e-05
8.08917e-05
7.60483e-05
7.18602e-05
6.82445e-05
6.51271e-05
6.24421e-05
6.01318e-05
5.81456e-05
5.64396e-05
5.49757e-05
5.37206e-05
5.26459e-05
5.17269e-05
5.09421e-05
5.02731e-05
4.97037e-05
4.92199e-05
4.88095e-05
4.84616e-05
4.81669e-05
4.7917e-05
4.77044e-05
4.75224e-05
4.73651e-05
4.72269e-05
4.71029e-05
4.69885e-05
4.68794e-05
4.67717e-05
4.66618e-05
4.65461e-05
4.64213e-05
4.62846e-05
4.6133e-05
4.5964e-05
4.57753e-05
4.5565e-05
4.53314e-05
4.50735e-05
4.47908e-05
4.44835e-05
4.41524e-05
4.37994e-05
4.34272e-05
4.30397e-05
4.2642e-05
4.22399e-05
4.18407e-05
4.14523e-05
4.10835e-05
4.07435e-05
4.04417e-05
4.01874e-05
3.99894e-05
3.98558e-05
3.97937e-05
3.98092e-05
3.99072e-05
4.00915e-05
4.03649e-05
4.07292e-05
4.11856e-05
4.1734e-05
4.23734e-05
4.31015e-05
4.39151e-05
4.48101e-05
4.57817e-05
4.68245e-05
4.79326e-05
4.91e-05
5.03207e-05
5.15886e-05
5.28978e-05
5.42427e-05
5.56179e-05
5.70182e-05
5.84389e-05
5.98756e-05
6.13241e-05
6.27806e-05
6.42416e-05
6.57037e-05
6.7164e-05
6.86195e-05
7.00676e-05
7.15058e-05
7.29318e-05
7.43432e-05
7.57381e-05
7.71143e-05
7.84699e-05
7.98029e-05
8.11116e-05
8.23942e-05
8.36488e-05
8.48737e-05
8.60672e-05
8.72275e-05
8.8353e-05
8.9442e-05
9.04926e-05
9.15032e-05
9.24721e-05
9.33975e-05
9.42777e-05
9.51108e-05
9.58951e-05
9.66287e-05
9.73099e-05
9.79367e-05
9.85072e-05
9.90195e-05
9.94716e-05
9.98616e-05
0.000100187
0.000100447
0.000100638
0.000100759
0.000100806
0.000100779
0.000100675
0.000100491
0.000100225
9.98739e-05
9.94362e-05
9.8909e-05
9.82894e-05
9.75749e-05
9.67625e-05
9.58494e-05
9.48326e-05
9.37089e-05
9.24752e-05
9.11282e-05
8.96643e-05
8.80801e-05
8.63717e-05
8.45353e-05
8.25667e-05
8.04616e-05
7.82154e-05
7.58233e-05
7.32802e-05
7.05806e-05
6.77186e-05
6.46878e-05
6.14815e-05
5.80923e-05
5.4512e-05
5.07319e-05
4.67425e-05
4.25337e-05
3.80952e-05
3.34175e-05
2.84949e-05
2.33329e-05
1.79685e-05
1.25282e-05
7.39069e-06
3.46132e-06
1.66407e-06
)
;

boundaryField
{
    top_wall
    {
        type            nutLowReWallFunction;
        value           uniform 0;
    }
    inlet
    {
        type            cyclic;
    }
    bot_wall
    {
        type            nutLowReWallFunction;
        value           uniform 0;
    }
    outlet
    {
        type            cyclic;
    }
    frontAndBack
    {
        type            empty;
    }
}


// ************************************************************************* //
