/*--------------------------------*- C++ -*----------------------------------*\
| =========                 |                                                 |
| \\      /  F ield         | OpenFOAM: The Open Source CFD Toolbox           |
|  \\    /   O peration     | Version:  2312                                  |
|   \\  /    A nd           | Website:  www.openfoam.com                      |
|    \\/     M anipulation  |                                                 |
\*---------------------------------------------------------------------------*/
FoamFile
{
    version     2.0;
    format      ascii;
    arch        "LSB;label=32;scalar=64";
    class       volScalarField;
    location    "10.91";
    object      k;
}
// * * * * * * * * * * * * * * * * * * * * * * * * * * * * * * * * * * * * * //

dimensions      [0 2 -2 0 0 0 0];

internalField   nonuniform List<scalar> 
500
(
0.000336589
0.000901114
0.00345505
0.00509785
0.00595429
0.00642725
0.00670947
0.00688934
0.0070102
0.00709297
0.0071499
0.00718862
0.00721406
0.00722958
0.00723752
0.00723955
0.00723692
0.00723055
0.00722116
0.00720929
0.00719537
0.00717976
0.00716273
0.0071445
0.00712526
0.00710517
0.00708434
0.00706289
0.00704089
0.00701844
0.00699558
0.00697238
0.00694888
0.00692512
0.00690113
0.00687693
0.00685257
0.00682805
0.00680339
0.00677861
0.00675372
0.00672874
0.00670368
0.00667853
0.00665332
0.00662804
0.0066027
0.00657731
0.00655186
0.00652637
0.00650083
0.00647525
0.00644963
0.00642397
0.00639827
0.00637252
0.00634675
0.00632093
0.00629507
0.00626918
0.00624325
0.00621729
0.00619128
0.00616524
0.00613916
0.00611304
0.00608688
0.00606068
0.00603445
0.00600817
0.00598185
0.0059555
0.0059291
0.00590267
0.00587619
0.00584968
0.00582312
0.00579653
0.00576989
0.00574322
0.00571651
0.00568976
0.00566297
0.00563614
0.00560928
0.00558238
0.00555545
0.00552848
0.00550149
0.00547446
0.0054474
0.00542031
0.00539319
0.00536605
0.00533888
0.00531169
0.00528448
0.00525725
0.00523001
0.00520275
0.00517548
0.00514819
0.0051209
0.00509361
0.00506631
0.00503902
0.00501172
0.00498443
0.00495716
0.00492989
0.00490264
0.00487541
0.0048482
0.00482102
0.00479387
0.00476675
0.00473966
0.00471262
0.00468562
0.00465867
0.00463177
0.00460492
0.00457814
0.00455141
0.00452476
0.00449817
0.00447166
0.00444522
0.00441887
0.00439259
0.00436641
0.00434032
0.00431432
0.00428843
0.00426263
0.00423693
0.00421135
0.00418587
0.00416051
0.00413526
0.00411014
0.00408513
0.00406025
0.00403549
0.00401087
0.00398637
0.00396201
0.00393779
0.0039137
0.00388975
0.00386595
0.00384229
0.00381878
0.00379542
0.00377221
0.00374915
0.00372624
0.0037035
0.00368091
0.00365848
0.00363622
0.00361412
0.00359219
0.00357042
0.00354883
0.00352741
0.00350616
0.00348509
0.00346419
0.00344348
0.00342295
0.0034026
0.00338243
0.00336246
0.00334267
0.00332308
0.00330368
0.00328447
0.00326546
0.00324665
0.00322805
0.00320964
0.00319145
0.00317346
0.00315568
0.00313811
0.00312075
0.00310362
0.0030867
0.00307
0.00305352
0.00303727
0.00302124
0.00300544
0.00298987
0.00297454
0.00295944
0.00294458
0.00292996
0.00291557
0.00290143
0.00288754
0.00287389
0.0028605
0.00284735
0.00283446
0.00282182
0.00280944
0.00279732
0.00278546
0.00277386
0.00276253
0.00275146
0.00274066
0.00273013
0.00271987
0.00270989
0.00270018
0.00269075
0.0026816
0.00267272
0.00266413
0.00265582
0.0026478
0.00264006
0.0026326
0.00262544
0.00261856
0.00261198
0.00260569
0.00259969
0.00259398
0.00258857
0.00258345
0.00257864
0.00257411
0.00256989
0.00256597
0.00256234
0.00255902
0.002556
0.00255328
0.00255086
0.00254874
0.00254692
0.00254541
0.0025442
0.00254329
0.00254268
0.00254238
0.00254238
0.00254268
0.00254329
0.0025442
0.00254541
0.00254692
0.00254874
0.00255085
0.00255327
0.00255599
0.00255902
0.00256234
0.00256596
0.00256989
0.00257411
0.00257863
0.00258345
0.00258856
0.00259397
0.00259968
0.00260568
0.00261197
0.00261856
0.00262543
0.0026326
0.00264005
0.00264779
0.00265581
0.00266412
0.00267272
0.00268159
0.00269074
0.00270017
0.00270988
0.00271987
0.00273012
0.00274065
0.00275145
0.00276252
0.00277385
0.00278545
0.00279731
0.00280943
0.00282181
0.00283445
0.00284734
0.00286049
0.00287388
0.00288753
0.00290142
0.00291556
0.00292995
0.00294457
0.00295943
0.00297453
0.00298986
0.00300543
0.00302123
0.00303726
0.00305351
0.00306999
0.00308669
0.00310361
0.00312074
0.0031381
0.00315567
0.00317345
0.00319144
0.00320964
0.00322804
0.00324665
0.00326545
0.00328446
0.00330367
0.00332307
0.00334267
0.00336245
0.00338243
0.00340259
0.00342294
0.00344347
0.00346419
0.00348508
0.00350616
0.00352741
0.00354883
0.00357042
0.00359219
0.00361412
0.00363622
0.00365849
0.00368091
0.0037035
0.00372625
0.00374915
0.00377221
0.00379542
0.00381879
0.0038423
0.00386596
0.00388976
0.00391371
0.00393779
0.00396202
0.00398638
0.00401087
0.0040355
0.00406026
0.00408514
0.00411015
0.00413527
0.00416052
0.00418588
0.00421136
0.00423694
0.00426264
0.00428844
0.00431433
0.00434033
0.00436642
0.0043926
0.00441888
0.00444523
0.00447167
0.00449818
0.00452477
0.00455142
0.00457815
0.00460493
0.00463178
0.00465868
0.00468563
0.00471263
0.00473967
0.00476676
0.00479388
0.00482103
0.00484821
0.00487542
0.00490265
0.0049299
0.00495717
0.00498444
0.00501173
0.00503902
0.00506632
0.00509362
0.00512091
0.0051482
0.00517548
0.00520276
0.00523002
0.00525726
0.00528449
0.0053117
0.00533889
0.00536605
0.0053932
0.00542031
0.0054474
0.00547446
0.00550149
0.00552849
0.00555546
0.00558239
0.00560929
0.00563615
0.00566297
0.00568976
0.00571651
0.00574322
0.0057699
0.00579653
0.00582313
0.00584968
0.0058762
0.00590267
0.00592911
0.0059555
0.00598186
0.00600817
0.00603445
0.00606069
0.00608688
0.00611304
0.00613916
0.00616524
0.00619128
0.00621729
0.00624325
0.00626918
0.00629508
0.00632093
0.00634675
0.00637253
0.00639827
0.00642397
0.00644963
0.00647525
0.00650084
0.00652637
0.00655186
0.00657731
0.0066027
0.00662804
0.00665332
0.00667853
0.00670368
0.00672874
0.00675373
0.00677861
0.00680339
0.00682805
0.00685257
0.00687694
0.00690113
0.00692512
0.00694888
0.00697238
0.00699559
0.00701844
0.0070409
0.00706289
0.00708434
0.00710517
0.00712526
0.0071445
0.00716273
0.00717976
0.00719537
0.00720929
0.00722116
0.00723056
0.00723692
0.00723955
0.00723752
0.00722958
0.00721406
0.00718862
0.0071499
0.00709297
0.0070102
0.00688934
0.00670947
0.00642725
0.00595429
0.00509785
0.00345505
0.000901114
0.000336589
)
;

boundaryField
{
    top_wall
    {
        type            kLowReWallFunction;
        value           uniform 2.11878e-06;
    }
    inlet
    {
        type            cyclic;
    }
    bot_wall
    {
        type            kLowReWallFunction;
        value           uniform 2.11878e-06;
    }
    outlet
    {
        type            cyclic;
    }
    frontAndBack
    {
        type            empty;
    }
}


// ************************************************************************* //
