/*--------------------------------*- C++ -*----------------------------------*\
| =========                 |                                                 |
| \\      /  F ield         | OpenFOAM: The Open Source CFD Toolbox           |
|  \\    /   O peration     | Version:  2312                                  |
|   \\  /    A nd           | Website:  www.openfoam.com                      |
|    \\/     M anipulation  |                                                 |
\*---------------------------------------------------------------------------*/
FoamFile
{
    version     2.0;
    format      ascii;
    arch        "LSB;label=32;scalar=64";
    class       volScalarField;
    location    "10.91";
    object      nut;
}
// * * * * * * * * * * * * * * * * * * * * * * * * * * * * * * * * * * * * * //

dimensions      [0 2 -1 0 0 0 0];

internalField   nonuniform List<scalar> 
500
(
3.36308e-07
4.43614e-06
3.62618e-05
8.47416e-05
0.0001427
0.00020697
0.000274356
0.00034098
0.000408409
0.000476247
0.000544229
0.000612169
0.000679932
0.000747414
0.000814533
0.000881224
0.000947432
0.00101311
0.00107822
0.00114271
0.00120657
0.00126975
0.00133223
0.00139398
0.00145498
0.00151521
0.00157463
0.00163324
0.00169101
0.00174793
0.00180397
0.00185912
0.00191337
0.0019667
0.0020191
0.00207055
0.00212105
0.00217059
0.00221915
0.00226673
0.00231332
0.00235892
0.00240352
0.00244712
0.00248972
0.00253131
0.00257189
0.00261146
0.00265002
0.00268758
0.00272413
0.00275969
0.00279425
0.00282782
0.0028604
0.00289201
0.00292264
0.00295231
0.00298102
0.00300879
0.00303562
0.00306153
0.00308651
0.0031106
0.00313379
0.0031561
0.00317754
0.00319812
0.00321787
0.00323678
0.00325488
0.00327218
0.0032887
0.00330444
0.00331942
0.00333367
0.00334719
0.00335999
0.00337211
0.00338354
0.0033943
0.00340442
0.00341391
0.00342278
0.00343104
0.00343872
0.00344583
0.00345238
0.00345839
0.00346388
0.00346885
0.00347333
0.00347733
0.00348087
0.00348395
0.00348659
0.0034888
0.00349061
0.00349202
0.00349304
0.00349369
0.00349398
0.00349393
0.00349353
0.00349281
0.00349178
0.00349044
0.00348882
0.0034869
0.00348472
0.00348227
0.00347957
0.00347662
0.00347343
0.00347001
0.00346637
0.00346251
0.00345845
0.00345419
0.00344973
0.00344508
0.00344025
0.00343524
0.00343007
0.00342473
0.00341923
0.00341357
0.00340777
0.00340181
0.00339572
0.0033895
0.00338314
0.00337665
0.00337005
0.00336332
0.00335648
0.00334953
0.00334247
0.00333531
0.00332805
0.00332069
0.00331325
0.00330571
0.00329809
0.0032904
0.00328262
0.00327477
0.00326686
0.00325887
0.00325083
0.00324272
0.00323456
0.00322635
0.00321809
0.00320978
0.00320143
0.00319304
0.00318462
0.00317616
0.00316768
0.00315916
0.00315063
0.00314207
0.0031335
0.00312492
0.00311632
0.00310772
0.00309912
0.00309051
0.00308191
0.00307331
0.00306472
0.00305614
0.00304757
0.00303903
0.0030305
0.003022
0.00301352
0.00300507
0.00299666
0.00298828
0.00297993
0.00297163
0.00296338
0.00295517
0.00294701
0.0029389
0.00293085
0.00292286
0.00291493
0.00290706
0.00289926
0.00289154
0.00288388
0.0028763
0.0028688
0.00286137
0.00285404
0.00284678
0.00283962
0.00283255
0.00282557
0.00281869
0.00281191
0.00280524
0.00279866
0.0027922
0.00278584
0.0027796
0.00277346
0.00276745
0.00276156
0.00275578
0.00275013
0.00274461
0.00273921
0.00273394
0.00272881
0.00272381
0.00271894
0.00271421
0.00270963
0.00270518
0.00270088
0.00269672
0.00269271
0.00268884
0.00268513
0.00268157
0.00267816
0.0026749
0.0026718
0.00266886
0.00266607
0.00266344
0.00266097
0.00265867
0.00265652
0.00265454
0.00265271
0.00265106
0.00264956
0.00264824
0.00264707
0.00264608
0.00264524
0.00264458
0.00264408
0.00264375
0.00264358
0.00264358
0.00264375
0.00264408
0.00264458
0.00264525
0.00264608
0.00264708
0.00264824
0.00264957
0.00265106
0.00265272
0.00265454
0.00265652
0.00265867
0.00266098
0.00266345
0.00266607
0.00266886
0.00267181
0.00267491
0.00267816
0.00268157
0.00268514
0.00268885
0.00269271
0.00269672
0.00270088
0.00270519
0.00270963
0.00271422
0.00271895
0.00272381
0.00272881
0.00273395
0.00273922
0.00274461
0.00275014
0.00275579
0.00276156
0.00276746
0.00277347
0.0027796
0.00278585
0.00279221
0.00279867
0.00280525
0.00281192
0.0028187
0.00282558
0.00283256
0.00283963
0.00284679
0.00285405
0.00286138
0.0028688
0.00287631
0.00288389
0.00289154
0.00289927
0.00290707
0.00291494
0.00292287
0.00293086
0.00293891
0.00294702
0.00295517
0.00296338
0.00297164
0.00297994
0.00298828
0.00299666
0.00300507
0.00301352
0.003022
0.0030305
0.00303903
0.00304757
0.00305614
0.00306472
0.0030733
0.0030819
0.00309051
0.00309911
0.00310772
0.00311632
0.00312491
0.00313349
0.00314206
0.00315062
0.00315915
0.00316766
0.00317615
0.0031846
0.00319303
0.00320142
0.00320977
0.00321807
0.00322633
0.00323455
0.00324271
0.00325081
0.00325886
0.00326684
0.00327476
0.0032826
0.00329038
0.00329808
0.00330569
0.00331323
0.00332067
0.00332803
0.00333529
0.00334245
0.00334951
0.00335646
0.0033633
0.00337003
0.00337664
0.00338312
0.00338948
0.00339571
0.0034018
0.00340775
0.00341356
0.00341922
0.00342472
0.00343006
0.00343524
0.00344024
0.00344507
0.00344972
0.00345418
0.00345845
0.00346251
0.00346637
0.00347001
0.00347343
0.00347662
0.00347957
0.00348227
0.00348472
0.00348691
0.00348882
0.00349045
0.00349178
0.00349282
0.00349354
0.00349393
0.00349399
0.0034937
0.00349305
0.00349202
0.00349062
0.00348881
0.00348659
0.00348395
0.00348087
0.00347734
0.00347334
0.00346886
0.00346389
0.0034584
0.00345239
0.00344584
0.00343873
0.00343105
0.00342278
0.00341392
0.00340443
0.00339431
0.00338355
0.00337211
0.00336
0.0033472
0.00333368
0.00331943
0.00330445
0.00328871
0.00327219
0.00325489
0.00323679
0.00321788
0.00319813
0.00317755
0.00315611
0.0031338
0.00311061
0.00308652
0.00306153
0.00303563
0.0030088
0.00298103
0.00295232
0.00292265
0.00289201
0.00286041
0.00282782
0.00279426
0.0027597
0.00272414
0.00268759
0.00265003
0.00261146
0.00257189
0.00253131
0.00248972
0.00244713
0.00240353
0.00235893
0.00231333
0.00226673
0.00221915
0.00217059
0.00212105
0.00207055
0.0020191
0.0019667
0.00191337
0.00185913
0.00180397
0.00174793
0.00169102
0.00163325
0.00157464
0.00151521
0.00145498
0.00139398
0.00133223
0.00126975
0.00120657
0.00114271
0.00107822
0.00101311
0.000947433
0.000881225
0.000814534
0.000747414
0.000679932
0.00061217
0.000544229
0.000476247
0.000408409
0.00034098
0.000274356
0.00020697
0.0001427
8.47417e-05
3.62618e-05
4.43614e-06
3.36308e-07
)
;

boundaryField
{
    top_wall
    {
        type            nutLowReWallFunction;
        value           uniform 0;
    }
    inlet
    {
        type            cyclic;
    }
    bot_wall
    {
        type            nutLowReWallFunction;
        value           uniform 0;
    }
    outlet
    {
        type            cyclic;
    }
    frontAndBack
    {
        type            empty;
    }
}


// ************************************************************************* //
