/*--------------------------------*- C++ -*----------------------------------*\
| =========                 |                                                 |
| \\      /  F ield         | OpenFOAM: The Open Source CFD Toolbox           |
|  \\    /   O peration     | Version:  2312                                  |
|   \\  /    A nd           | Website:  www.openfoam.com                      |
|    \\/     M anipulation  |                                                 |
\*---------------------------------------------------------------------------*/
FoamFile
{
    version     2.0;
    format      ascii;
    arch        "LSB;label=32;scalar=64";
    class       volVectorField;
    location    "10.91";
    object      U;
}
// * * * * * * * * * * * * * * * * * * * * * * * * * * * * * * * * * * * * * //

dimensions      [0 1 -1 0 0 0 0];

internalField   nonuniform List<vector> 
500
(
(0.0997965 -1.90916e-18 0)
(0.289538 -2.72009e-18 0)
(0.430265 -3.06242e-18 0)
(0.519496 -2.86261e-18 0)
(0.579479 -2.76636e-18 0)
(0.62298 -2.73122e-18 0)
(0.656493 -2.80752e-18 0)
(0.683617 -2.77619e-18 0)
(0.706366 -2.05021e-18 0)
(0.72591 -1.48566e-18 0)
(0.743013 -1.55267e-18 0)
(0.758204 -1.74762e-18 0)
(0.771857 -2.03313e-18 0)
(0.78425 -2.33197e-18 0)
(0.795591 -2.26932e-18 0)
(0.806044 -2.19813e-18 0)
(0.815735 -2.318e-18 0)
(0.824768 -2.35694e-18 0)
(0.833227 -2.3907e-18 0)
(0.841179 -2.41755e-18 0)
(0.848683 -2.4393e-18 0)
(0.855786 -2.45736e-18 0)
(0.86253 -2.47283e-18 0)
(0.868951 -2.48647e-18 0)
(0.875078 -2.49885e-18 0)
(0.880937 -2.51034e-18 0)
(0.886553 -2.52121e-18 0)
(0.891945 -2.53159e-18 0)
(0.897131 -2.54158e-18 0)
(0.902128 -2.55122e-18 0)
(0.906949 -2.56053e-18 0)
(0.911607 -2.56951e-18 0)
(0.916114 -2.57816e-18 0)
(0.92048 -2.58647e-18 0)
(0.924715 -2.59444e-18 0)
(0.928826 -2.60205e-18 0)
(0.932822 -2.60932e-18 0)
(0.93671 -2.61624e-18 0)
(0.940496 -2.62282e-18 0)
(0.944186 -2.62907e-18 0)
(0.947786 -2.635e-18 0)
(0.9513 -2.64063e-18 0)
(0.954734 -2.64596e-18 0)
(0.958092 -2.65101e-18 0)
(0.961377 -2.6558e-18 0)
(0.964594 -2.66033e-18 0)
(0.967745 -2.66461e-18 0)
(0.970835 -2.66866e-18 0)
(0.973866 -2.67249e-18 0)
(0.97684 -2.6761e-18 0)
(0.979762 -2.67949e-18 0)
(0.982632 -2.68269e-18 0)
(0.985453 -2.68568e-18 0)
(0.988228 -2.68848e-18 0)
(0.990959 -2.69108e-18 0)
(0.993647 -2.69348e-18 0)
(0.996294 -2.69569e-18 0)
(0.998902 -2.6977e-18 0)
(1.00147 -2.69951e-18 0)
(1.00401 -2.70113e-18 0)
(1.00651 -2.70253e-18 0)
(1.00897 -2.70373e-18 0)
(1.01141 -2.70471e-18 0)
(1.01381 -2.70548e-18 0)
(1.01619 -2.70602e-18 0)
(1.01854 -2.70632e-18 0)
(1.02086 -2.7064e-18 0)
(1.02315 -2.70622e-18 0)
(1.02542 -2.70579e-18 0)
(1.02766 -2.7051e-18 0)
(1.02988 -2.70415e-18 0)
(1.03207 -2.70291e-18 0)
(1.03425 -2.70139e-18 0)
(1.0364 -2.69957e-18 0)
(1.03853 -2.69744e-18 0)
(1.04064 -2.69499e-18 0)
(1.04273 -2.69222e-18 0)
(1.04481 -2.68911e-18 0)
(1.04686 -2.68564e-18 0)
(1.0489 -2.68181e-18 0)
(1.05092 -2.6776e-18 0)
(1.05292 -2.67301e-18 0)
(1.0549 -2.668e-18 0)
(1.05687 -2.66259e-18 0)
(1.05883 -2.65674e-18 0)
(1.06077 -2.65044e-18 0)
(1.06269 -2.64369e-18 0)
(1.0646 -2.63646e-18 0)
(1.0665 -2.62874e-18 0)
(1.06838 -2.62052e-18 0)
(1.07025 -2.61178e-18 0)
(1.07211 -2.60251e-18 0)
(1.07395 -2.59269e-18 0)
(1.07578 -2.58233e-18 0)
(1.0776 -2.5714e-18 0)
(1.0794 -2.5599e-18 0)
(1.08119 -2.54783e-18 0)
(1.08298 -2.53519e-18 0)
(1.08475 -2.52197e-18 0)
(1.08651 -2.50819e-18 0)
(1.08825 -2.49385e-18 0)
(1.08999 -2.47897e-18 0)
(1.09172 -2.46359e-18 0)
(1.09343 -2.44772e-18 0)
(1.09514 -2.43142e-18 0)
(1.09683 -2.41473e-18 0)
(1.09852 -2.39771e-18 0)
(1.10019 -2.38043e-18 0)
(1.10185 -2.36299e-18 0)
(1.10351 -2.34546e-18 0)
(1.10515 -2.32796e-18 0)
(1.10679 -2.3106e-18 0)
(1.10841 -2.29353e-18 0)
(1.11003 -2.27687e-18 0)
(1.11163 -2.26078e-18 0)
(1.11323 -2.24541e-18 0)
(1.11481 -2.23093e-18 0)
(1.11639 -2.21751e-18 0)
(1.11796 -2.20531e-18 0)
(1.11952 -2.19451e-18 0)
(1.12107 -2.18526e-18 0)
(1.12261 -2.17776e-18 0)
(1.12414 -2.17217e-18 0)
(1.12566 -2.1675e-18 0)
(1.12717 -2.16506e-18 0)
(1.12868 -2.165e-18 0)
(1.13017 -2.16756e-18 0)
(1.13166 -2.17319e-18 0)
(1.13313 -2.18126e-18 0)
(1.1346 -2.1924e-18 0)
(1.13606 -2.2073e-18 0)
(1.13751 -2.22679e-18 0)
(1.13895 -2.25188e-18 0)
(1.14038 -2.28386e-18 0)
(1.1418 -2.32305e-18 0)
(1.14322 -2.36859e-18 0)
(1.14462 -2.44314e-18 0)
(1.14602 -2.57005e-18 0)
(1.1474 -2.7257e-18 0)
(1.14878 -2.86561e-18 0)
(1.15015 -3.41789e-18 0)
(1.15151 -3.96814e-18 0)
(1.15286 -4.09916e-18 0)
(1.1542 -4.23772e-18 0)
(1.15553 -4.36298e-18 0)
(1.15686 -4.47544e-18 0)
(1.15817 -4.57323e-18 0)
(1.15947 -4.65641e-18 0)
(1.16077 -4.72517e-18 0)
(1.16206 -4.78021e-18 0)
(1.16333 -4.82262e-18 0)
(1.1646 -4.85264e-18 0)
(1.16586 -4.87094e-18 0)
(1.16711 -4.87797e-18 0)
(1.16835 -4.87408e-18 0)
(1.16958 -4.85952e-18 0)
(1.1708 -4.83454e-18 0)
(1.17201 -4.79939e-18 0)
(1.17321 -4.75429e-18 0)
(1.1744 -4.69951e-18 0)
(1.17558 -4.63539e-18 0)
(1.17675 -4.5623e-18 0)
(1.17791 -4.48074e-18 0)
(1.17906 -4.39068e-18 0)
(1.18021 -4.29282e-18 0)
(1.18134 -4.18787e-18 0)
(1.18246 -4.07601e-18 0)
(1.18357 -3.95812e-18 0)
(1.18467 -3.83376e-18 0)
(1.18576 -3.71821e-18 0)
(1.18684 -3.74966e-18 0)
(1.18791 -4.05545e-18 0)
(1.18897 -4.36155e-18 0)
(1.19002 -4.39006e-18 0)
(1.19106 -4.26646e-18 0)
(1.19208 -4.12846e-18 0)
(1.1931 -3.99169e-18 0)
(1.19411 -3.85557e-18 0)
(1.1951 -3.72081e-18 0)
(1.19608 -3.58809e-18 0)
(1.19706 -3.45733e-18 0)
(1.19802 -3.32899e-18 0)
(1.19897 -3.20341e-18 0)
(1.19991 -3.08084e-18 0)
(1.20083 -2.96144e-18 0)
(1.20175 -2.84529e-18 0)
(1.20265 -2.73239e-18 0)
(1.20355 -2.62271e-18 0)
(1.20443 -2.51612e-18 0)
(1.2053 -2.41247e-18 0)
(1.20615 -2.31229e-18 0)
(1.207 -2.21546e-18 0)
(1.20783 -2.12193e-18 0)
(1.20865 -2.0318e-18 0)
(1.20946 -1.94531e-18 0)
(1.21025 -1.86285e-18 0)
(1.21104 -1.78507e-18 0)
(1.21181 -1.71335e-18 0)
(1.21257 -1.64917e-18 0)
(1.21331 -1.5955e-18 0)
(1.21405 -1.55721e-18 0)
(1.21476 -1.53423e-18 0)
(1.21547 -1.58214e-18 0)
(1.21617 -2.15466e-18 0)
(1.21685 -2.7306e-18 0)
(1.21751 -2.78566e-18 0)
(1.21817 -2.77324e-18 0)
(1.21881 -2.74908e-18 0)
(1.21943 -2.7131e-18 0)
(1.22005 -2.67032e-18 0)
(1.22065 -2.6235e-18 0)
(1.22123 -2.57469e-18 0)
(1.2218 -2.52508e-18 0)
(1.22236 -2.47556e-18 0)
(1.22291 -2.42677e-18 0)
(1.22344 -2.37916e-18 0)
(1.22395 -2.33303e-18 0)
(1.22445 -2.28855e-18 0)
(1.22494 -2.24582e-18 0)
(1.22541 -2.20481e-18 0)
(1.22587 -2.16546e-18 0)
(1.22632 -2.12767e-18 0)
(1.22675 -2.0913e-18 0)
(1.22716 -2.05636e-18 0)
(1.22756 -2.02287e-18 0)
(1.22795 -1.99067e-18 0)
(1.22832 -1.95963e-18 0)
(1.22867 -1.92963e-18 0)
(1.22901 -1.90054e-18 0)
(1.22934 -1.87245e-18 0)
(1.22965 -1.84527e-18 0)
(1.22994 -1.81892e-18 0)
(1.23022 -1.79335e-18 0)
(1.23048 -1.7685e-18 0)
(1.23073 -1.74434e-18 0)
(1.23097 -1.72084e-18 0)
(1.23119 -1.69796e-18 0)
(1.23139 -1.67569e-18 0)
(1.23158 -1.654e-18 0)
(1.23175 -1.63288e-18 0)
(1.2319 -1.61229e-18 0)
(1.23204 -1.59222e-18 0)
(1.23217 -1.57265e-18 0)
(1.23228 -1.55356e-18 0)
(1.23237 -1.53498e-18 0)
(1.23245 -1.51688e-18 0)
(1.23251 -1.49926e-18 0)
(1.23256 -1.48207e-18 0)
(1.23259 -1.46531e-18 0)
(1.23261 -1.44897e-18 0)
(1.23261 -1.43303e-18 0)
(1.23259 -1.41747e-18 0)
(1.23256 -1.40228e-18 0)
(1.23251 -1.38744e-18 0)
(1.23245 -1.37293e-18 0)
(1.23237 -1.35876e-18 0)
(1.23228 -1.34491e-18 0)
(1.23217 -1.33137e-18 0)
(1.23204 -1.31811e-18 0)
(1.2319 -1.30512e-18 0)
(1.23175 -1.29239e-18 0)
(1.23158 -1.27989e-18 0)
(1.23139 -1.26763e-18 0)
(1.23119 -1.25558e-18 0)
(1.23097 -1.24373e-18 0)
(1.23073 -1.23216e-18 0)
(1.23048 -1.22088e-18 0)
(1.23022 -1.20985e-18 0)
(1.22994 -1.19908e-18 0)
(1.22965 -1.18856e-18 0)
(1.22934 -1.17826e-18 0)
(1.22901 -1.16818e-18 0)
(1.22867 -1.15832e-18 0)
(1.22832 -1.14866e-18 0)
(1.22795 -1.13919e-18 0)
(1.22756 -1.1299e-18 0)
(1.22716 -1.12078e-18 0)
(1.22675 -1.11183e-18 0)
(1.22632 -1.10303e-18 0)
(1.22587 -1.09437e-18 0)
(1.22541 -1.08586e-18 0)
(1.22494 -1.07747e-18 0)
(1.22445 -1.0692e-18 0)
(1.22395 -1.06104e-18 0)
(1.22344 -1.05299e-18 0)
(1.22291 -1.04503e-18 0)
(1.22236 -1.03716e-18 0)
(1.2218 -1.02937e-18 0)
(1.22123 -1.02166e-18 0)
(1.22065 -1.01402e-18 0)
(1.22005 -1.00644e-18 0)
(1.21943 -9.98911e-19 0)
(1.21881 -9.91436e-19 0)
(1.21817 -9.84006e-19 0)
(1.21751 -9.76615e-19 0)
(1.21685 -9.6926e-19 0)
(1.21617 -9.61934e-19 0)
(1.21547 -9.54635e-19 0)
(1.21476 -9.47358e-19 0)
(1.21405 -9.40099e-19 0)
(1.21331 -9.32855e-19 0)
(1.21257 -9.25623e-19 0)
(1.21181 -9.184e-19 0)
(1.21104 -9.11183e-19 0)
(1.21025 -9.03971e-19 0)
(1.20946 -8.96761e-19 0)
(1.20865 -8.89551e-19 0)
(1.20783 -8.82341e-19 0)
(1.207 -8.75128e-19 0)
(1.20615 -8.67911e-19 0)
(1.2053 -8.60691e-19 0)
(1.20443 -8.53465e-19 0)
(1.20355 -8.46235e-19 0)
(1.20265 -8.38998e-19 0)
(1.20175 -8.31756e-19 0)
(1.20083 -8.24509e-19 0)
(1.19991 -8.17256e-19 0)
(1.19897 -8.09999e-19 0)
(1.19802 -8.02737e-19 0)
(1.19706 -7.95472e-19 0)
(1.19608 -7.88204e-19 0)
(1.1951 -7.80935e-19 0)
(1.19411 -7.73664e-19 0)
(1.1931 -7.66394e-19 0)
(1.19208 -7.59125e-19 0)
(1.19106 -7.51859e-19 0)
(1.19002 -7.44598e-19 0)
(1.18897 -7.37342e-19 0)
(1.18791 -7.30093e-19 0)
(1.18684 -7.22852e-19 0)
(1.18576 -7.15622e-19 0)
(1.18467 -7.08403e-19 0)
(1.18357 -7.01197e-19 0)
(1.18246 -6.94007e-19 0)
(1.18134 -6.86833e-19 0)
(1.1802 -6.79677e-19 0)
(1.17906 -6.72542e-19 0)
(1.17791 -6.65427e-19 0)
(1.17675 -6.58336e-19 0)
(1.17558 -6.5127e-19 0)
(1.1744 -6.44231e-19 0)
(1.17321 -6.37219e-19 0)
(1.17201 -6.30237e-19 0)
(1.1708 -6.23287e-19 0)
(1.16958 -6.16369e-19 0)
(1.16835 -6.09486e-19 0)
(1.16711 -6.02639e-19 0)
(1.16586 -5.95828e-19 0)
(1.1646 -5.89057e-19 0)
(1.16333 -5.82326e-19 0)
(1.16206 -5.75636e-19 0)
(1.16077 -5.68989e-19 0)
(1.15947 -5.62386e-19 0)
(1.15817 -5.55828e-19 0)
(1.15686 -5.49317e-19 0)
(1.15553 -5.42854e-19 0)
(1.1542 -5.36439e-19 0)
(1.15286 -5.30073e-19 0)
(1.15151 -5.23759e-19 0)
(1.15015 -5.17496e-19 0)
(1.14878 -5.11286e-19 0)
(1.1474 -5.05129e-19 0)
(1.14602 -4.99027e-19 0)
(1.14462 -4.92979e-19 0)
(1.14322 -4.86987e-19 0)
(1.1418 -4.81052e-19 0)
(1.14038 -4.75174e-19 0)
(1.13895 -4.69354e-19 0)
(1.13751 -4.63592e-19 0)
(1.13606 -4.57889e-19 0)
(1.1346 -4.52245e-19 0)
(1.13313 -4.4666e-19 0)
(1.13166 -4.41136e-19 0)
(1.13017 -4.35672e-19 0)
(1.12868 -4.30269e-19 0)
(1.12717 -4.24928e-19 0)
(1.12566 -4.19647e-19 0)
(1.12414 -4.14428e-19 0)
(1.12261 -4.0927e-19 0)
(1.12107 -4.04174e-19 0)
(1.11952 -3.99141e-19 0)
(1.11796 -3.94169e-19 0)
(1.11639 -3.89259e-19 0)
(1.11481 -3.84411e-19 0)
(1.11323 -3.79625e-19 0)
(1.11163 -3.74901e-19 0)
(1.11002 -3.70239e-19 0)
(1.10841 -3.65638e-19 0)
(1.10679 -3.61099e-19 0)
(1.10515 -3.56622e-19 0)
(1.10351 -3.52205e-19 0)
(1.10185 -3.4785e-19 0)
(1.10019 -3.43555e-19 0)
(1.09852 -3.39321e-19 0)
(1.09683 -3.35147e-19 0)
(1.09514 -3.31033e-19 0)
(1.09343 -3.26979e-19 0)
(1.09172 -3.22984e-19 0)
(1.08999 -3.19047e-19 0)
(1.08825 -3.15169e-19 0)
(1.08651 -3.11349e-19 0)
(1.08475 -3.07587e-19 0)
(1.08298 -3.03882e-19 0)
(1.08119 -3.00233e-19 0)
(1.0794 -2.96641e-19 0)
(1.0776 -2.93105e-19 0)
(1.07578 -2.89623e-19 0)
(1.07395 -2.86197e-19 0)
(1.0721 -2.82825e-19 0)
(1.07025 -2.79506e-19 0)
(1.06838 -2.7624e-19 0)
(1.0665 -2.73027e-19 0)
(1.0646 -2.69866e-19 0)
(1.06269 -2.66757e-19 0)
(1.06077 -2.63698e-19 0)
(1.05883 -2.60689e-19 0)
(1.05687 -2.5773e-19 0)
(1.0549 -2.5482e-19 0)
(1.05292 -2.51958e-19 0)
(1.05092 -2.49144e-19 0)
(1.0489 -2.46376e-19 0)
(1.04686 -2.43656e-19 0)
(1.04481 -2.40981e-19 0)
(1.04273 -2.38351e-19 0)
(1.04064 -2.35765e-19 0)
(1.03853 -2.33223e-19 0)
(1.0364 -2.30725e-19 0)
(1.03425 -2.28268e-19 0)
(1.03207 -2.25854e-19 0)
(1.02988 -2.2348e-19 0)
(1.02766 -2.21147e-19 0)
(1.02541 -2.18853e-19 0)
(1.02315 -2.16599e-19 0)
(1.02085 -2.14382e-19 0)
(1.01854 -2.12203e-19 0)
(1.01619 -2.10061e-19 0)
(1.01381 -2.07955e-19 0)
(1.01141 -2.05885e-19 0)
(1.00897 -2.03848e-19 0)
(1.00651 -2.01846e-19 0)
(1.00401 -1.99877e-19 0)
(1.00147 -1.97941e-19 0)
(0.998902 -1.96036e-19 0)
(0.996294 -1.94162e-19 0)
(0.993646 -1.92318e-19 0)
(0.990959 -1.90504e-19 0)
(0.988228 -1.88718e-19 0)
(0.985453 -1.8696e-19 0)
(0.982632 -1.85228e-19 0)
(0.979761 -1.83523e-19 0)
(0.97684 -1.81843e-19 0)
(0.973865 -1.80188e-19 0)
(0.970835 -1.78555e-19 0)
(0.967745 -1.76946e-19 0)
(0.964593 -1.75358e-19 0)
(0.961377 -1.73791e-19 0)
(0.958091 -1.72244e-19 0)
(0.954734 -1.70715e-19 0)
(0.9513 -1.69204e-19 0)
(0.947785 -1.67709e-19 0)
(0.944186 -1.6623e-19 0)
(0.940495 -1.64765e-19 0)
(0.936709 -1.63312e-19 0)
(0.932822 -1.61871e-19 0)
(0.928826 -1.60441e-19 0)
(0.924714 -1.59018e-19 0)
(0.92048 -1.57603e-19 0)
(0.916114 -1.56193e-19 0)
(0.911607 -1.54787e-19 0)
(0.906949 -1.53382e-19 0)
(0.902128 -1.51976e-19 0)
(0.897131 -1.50566e-19 0)
(0.891945 -1.49151e-19 0)
(0.886553 -1.47728e-19 0)
(0.880937 -1.46292e-19 0)
(0.875077 -1.44841e-19 0)
(0.868951 -1.4337e-19 0)
(0.86253 -1.41876e-19 0)
(0.855786 -1.40352e-19 0)
(0.848682 -1.38794e-19 0)
(0.841179 -1.37193e-19 0)
(0.833226 -1.35542e-19 0)
(0.824768 -1.33832e-19 0)
(0.815735 -1.32052e-19 0)
(0.806044 -1.30187e-19 0)
(0.795591 -1.28221e-19 0)
(0.78425 -1.26133e-19 0)
(0.771857 -1.23898e-19 0)
(0.758204 -1.21481e-19 0)
(0.743013 -1.18839e-19 0)
(0.725909 -1.15911e-19 0)
(0.706366 -1.12613e-19 0)
(0.683616 -1.08824e-19 0)
(0.656493 -1.04357e-19 0)
(0.62298 -9.88939e-20 0)
(0.579479 -9.18624e-20 0)
(0.519496 -8.22367e-20 0)
(0.430265 -6.80039e-20 0)
(0.289538 -4.56723e-20 0)
(0.0997965 -1.56987e-20 0)
)
;

boundaryField
{
    top_wall
    {
        type            noSlip;
    }
    inlet
    {
        type            cyclic;
    }
    bot_wall
    {
        type            noSlip;
    }
    outlet
    {
        type            cyclic;
    }
    frontAndBack
    {
        type            empty;
    }
}


// ************************************************************************* //
