/*--------------------------------*- C++ -*----------------------------------*\
| =========                 |                                                 |
| \\      /  F ield         | OpenFOAM: The Open Source CFD Toolbox           |
|  \\    /   O peration     | Version:  2312                                  |
|   \\  /    A nd           | Website:  www.openfoam.com                      |
|    \\/     M anipulation  |                                                 |
\*---------------------------------------------------------------------------*/
FoamFile
{
    version     2.0;
    format      ascii;
    arch        "LSB;label=32;scalar=64";
    class       volScalarField;
    location    "22.23";
    object      k;
}
// * * * * * * * * * * * * * * * * * * * * * * * * * * * * * * * * * * * * * //

dimensions      [0 2 -2 0 0 0 0];

internalField   nonuniform List<scalar> 
2000
(
0.00263531
0.00296015
0.00370942
0.00438623
0.00491463
0.00532294
0.00564409
0.00590205
0.00611325
0.00628898
0.0064372
0.00656363
0.0066725
0.00676701
0.00684961
0.0069222
0.00698631
0.00704316
0.00709374
0.00713886
0.00717921
0.00721534
0.00724774
0.00727682
0.00730292
0.00732634
0.00734735
0.00736616
0.00738299
0.00739799
0.00741132
0.00742313
0.00743353
0.00744263
0.00745052
0.0074573
0.00746304
0.00746782
0.00747169
0.00747472
0.00747696
0.00747845
0.00747925
0.00747939
0.00747891
0.00747784
0.00747622
0.00747407
0.00747143
0.00746832
0.00746475
0.00746076
0.00745636
0.00745158
0.00744642
0.00744091
0.00743506
0.00742888
0.0074224
0.00741561
0.00740854
0.0074012
0.00739358
0.00738572
0.00737761
0.00736926
0.00736069
0.0073519
0.00734289
0.00733368
0.00732428
0.00731468
0.00730489
0.00729493
0.0072848
0.00727449
0.00726402
0.0072534
0.00724262
0.00723169
0.00722062
0.00720941
0.00719806
0.00718658
0.00717497
0.00716323
0.00715137
0.0071394
0.00712731
0.0071151
0.00710279
0.00709037
0.00707784
0.00706522
0.00705249
0.00703967
0.00702675
0.00701375
0.00700065
0.00698747
0.0069742
0.00696085
0.00694742
0.00693391
0.00692032
0.00690665
0.00689292
0.00687911
0.00686523
0.00685128
0.00683727
0.00682319
0.00680905
0.00679484
0.00678058
0.00676625
0.00675187
0.00673744
0.00672294
0.0067084
0.0066938
0.00667915
0.00666445
0.0066497
0.00663491
0.00662007
0.00660519
0.00659026
0.00657529
0.00656027
0.00654522
0.00653013
0.006515
0.00649983
0.00648463
0.00646939
0.00645412
0.00643881
0.00642348
0.00640811
0.00639271
0.00637729
0.00636183
0.00634635
0.00633084
0.0063153
0.00629975
0.00628416
0.00626856
0.00625293
0.00623728
0.00622161
0.00620593
0.00619022
0.0061745
0.00615875
0.006143
0.00612722
0.00611144
0.00609564
0.00607982
0.006064
0.00604816
0.00603231
0.00601645
0.00600058
0.0059847
0.00596882
0.00595293
0.00593703
0.00592113
0.00590522
0.0058893
0.00587339
0.00585747
0.00584154
0.00582562
0.00580969
0.00579377
0.00577784
0.00576192
0.005746
0.00573008
0.00571416
0.00569825
0.00568234
0.00566643
0.00565053
0.00563464
0.00561875
0.00560287
0.005587
0.00557113
0.00555528
0.00553943
0.0055236
0.00550777
0.00549196
0.00547615
0.00546036
0.00544459
0.00542882
0.00541307
0.00539734
0.00538162
0.00536591
0.00535022
0.00533455
0.0053189
0.00530326
0.00528764
0.00527204
0.00525645
0.00524089
0.00522535
0.00520983
0.00519432
0.00517884
0.00516339
0.00514795
0.00513254
0.00511715
0.00510178
0.00508644
0.00507112
0.00505583
0.00504056
0.00502532
0.00501011
0.00499492
0.00497976
0.00496463
0.00494952
0.00493444
0.0049194
0.00490438
0.00488939
0.00487443
0.0048595
0.0048446
0.00482973
0.0048149
0.00480009
0.00478532
0.00477058
0.00475587
0.0047412
0.00472656
0.00471195
0.00469738
0.00468284
0.00466834
0.00465387
0.00463944
0.00462504
0.00461068
0.00459636
0.00458207
0.00456782
0.00455361
0.00453943
0.00452529
0.00451119
0.00449713
0.00448311
0.00446913
0.00445518
0.00444127
0.00442741
0.00441358
0.0043998
0.00438605
0.00437235
0.00435868
0.00434506
0.00433148
0.00431793
0.00430444
0.00429098
0.00427756
0.00426419
0.00425086
0.00423757
0.00422433
0.00421113
0.00419797
0.00418485
0.00417178
0.00415875
0.00414577
0.00413283
0.00411994
0.00410708
0.00409428
0.00408152
0.0040688
0.00405613
0.0040435
0.00403092
0.00401838
0.00400589
0.00399345
0.00398105
0.00396869
0.00395639
0.00394412
0.00393191
0.00391974
0.00390762
0.00389554
0.00388351
0.00387153
0.00385959
0.0038477
0.00383586
0.00382406
0.00381231
0.00380061
0.00378896
0.00377735
0.00376579
0.00375428
0.00374281
0.0037314
0.00372003
0.0037087
0.00369743
0.0036862
0.00367502
0.00366389
0.00365281
0.00364177
0.00363078
0.00361984
0.00360895
0.0035981
0.0035873
0.00357655
0.00356585
0.0035552
0.00354459
0.00353404
0.00352353
0.00351306
0.00350265
0.00349229
0.00348197
0.0034717
0.00346148
0.0034513
0.00344117
0.0034311
0.00342107
0.00341108
0.00340115
0.00339126
0.00338142
0.00337163
0.00336189
0.00335219
0.00334254
0.00333294
0.00332339
0.00331388
0.00330443
0.00329501
0.00328565
0.00327634
0.00326707
0.00325785
0.00324867
0.00323955
0.00323047
0.00322143
0.00321245
0.00320351
0.00319462
0.00318578
0.00317698
0.00316823
0.00315952
0.00315087
0.00314226
0.00313369
0.00312518
0.00311671
0.00310828
0.0030999
0.00309157
0.00308328
0.00307504
0.00306685
0.0030587
0.0030506
0.00304255
0.00303454
0.00302657
0.00301865
0.00301078
0.00300295
0.00299517
0.00298743
0.00297974
0.00297209
0.00296449
0.00295693
0.00294942
0.00294195
0.00293453
0.00292715
0.00291982
0.00291253
0.00290529
0.00289809
0.00289093
0.00288382
0.00287675
0.00286973
0.00286275
0.00285581
0.00284892
0.00284207
0.00283526
0.0028285
0.00282178
0.00281511
0.00280848
0.00280189
0.00279534
0.00278884
0.00278237
0.00277596
0.00276958
0.00276325
0.00275696
0.00275071
0.0027445
0.00273834
0.00273221
0.00272613
0.00272009
0.00271409
0.00270814
0.00270222
0.00269635
0.00269052
0.00268473
0.00267898
0.00267327
0.0026676
0.00266197
0.00265638
0.00265084
0.00264533
0.00263986
0.00263444
0.00262905
0.0026237
0.00261839
0.00261313
0.0026079
0.00260271
0.00259756
0.00259245
0.00258738
0.00258235
0.00257735
0.0025724
0.00256748
0.0025626
0.00255776
0.00255296
0.0025482
0.00254347
0.00253878
0.00253413
0.00252952
0.00252494
0.0025204
0.0025159
0.00251144
0.00250701
0.00250262
0.00249826
0.00249394
0.00248966
0.00248542
0.00248121
0.00247703
0.00247289
0.00246879
0.00246472
0.00246069
0.00245669
0.00245273
0.0024488
0.00244491
0.00244105
0.00243723
0.00243344
0.00242968
0.00242596
0.00242227
0.00241862
0.00241499
0.00241141
0.00240785
0.00240433
0.00240084
0.00239738
0.00239396
0.00239057
0.00238721
0.00238388
0.00238058
0.00237732
0.00237408
0.00237088
0.00236771
0.00236457
0.00236146
0.00235839
0.00235534
0.00235232
0.00234933
0.00234638
0.00234345
0.00234055
0.00233768
0.00233484
0.00233203
0.00232925
0.0023265
0.00232377
0.00232108
0.00231841
0.00231577
0.00231316
0.00231057
0.00230802
0.00230549
0.00230299
0.00230051
0.00229806
0.00229564
0.00229324
0.00229087
0.00228853
0.00228621
0.00228392
0.00228165
0.00227941
0.00227719
0.002275
0.00227284
0.00227069
0.00226858
0.00226648
0.00226441
0.00226237
0.00226034
0.00225834
0.00225637
0.00225442
0.00225249
0.00225058
0.00224869
0.00224683
0.00224499
0.00224317
0.00224138
0.0022396
0.00223785
0.00223612
0.0022344
0.00223271
0.00223104
0.00222939
0.00222777
0.00222616
0.00222457
0.002223
0.00222145
0.00221992
0.00221841
0.00221692
0.00221544
0.00221399
0.00221255
0.00221113
0.00220974
0.00220835
0.00220699
0.00220564
0.00220432
0.00220301
0.00220171
0.00220043
0.00219917
0.00219793
0.0021967
0.00219549
0.0021943
0.00219312
0.00219196
0.00219081
0.00218968
0.00218856
0.00218746
0.00218637
0.0021853
0.00218424
0.0021832
0.00218217
0.00218116
0.00218016
0.00217917
0.0021782
0.00217724
0.0021763
0.00217536
0.00217444
0.00217354
0.00217265
0.00217176
0.0021709
0.00217004
0.0021692
0.00216837
0.00216755
0.00216674
0.00216594
0.00216516
0.00216439
0.00216362
0.00216287
0.00216213
0.00216141
0.00216069
0.00215998
0.00215928
0.0021586
0.00215792
0.00215725
0.0021566
0.00215595
0.00215532
0.00215469
0.00215407
0.00215346
0.00215286
0.00215227
0.00215169
0.00215112
0.00215056
0.00215
0.00214946
0.00214892
0.00214839
0.00214787
0.00214735
0.00214685
0.00214635
0.00214586
0.00214538
0.00214491
0.00214444
0.00214398
0.00214353
0.00214308
0.00214265
0.00214221
0.00214179
0.00214137
0.00214096
0.00214056
0.00214016
0.00213977
0.00213939
0.00213901
0.00213863
0.00213827
0.00213791
0.00213755
0.0021372
0.00213686
0.00213652
0.00213619
0.00213587
0.00213555
0.00213523
0.00213492
0.00213461
0.00213431
0.00213402
0.00213373
0.00213344
0.00213316
0.00213289
0.00213262
0.00213235
0.00213209
0.00213183
0.00213158
0.00213133
0.00213108
0.00213084
0.00213061
0.00213038
0.00213015
0.00212992
0.0021297
0.00212949
0.00212927
0.00212906
0.00212886
0.00212866
0.00212846
0.00212826
0.00212807
0.00212788
0.0021277
0.00212752
0.00212734
0.00212716
0.00212699
0.00212682
0.00212666
0.00212649
0.00212633
0.00212618
0.00212602
0.00212587
0.00212572
0.00212558
0.00212543
0.00212529
0.00212515
0.00212502
0.00212488
0.00212475
0.00212462
0.0021245
0.00212437
0.00212425
0.00212413
0.00212402
0.0021239
0.00212379
0.00212368
0.00212357
0.00212346
0.00212336
0.00212325
0.00212315
0.00212305
0.00212296
0.00212286
0.00212277
0.00212267
0.00212258
0.0021225
0.00212241
0.00212232
0.00212224
0.00212216
0.00212208
0.002122
0.00212192
0.00212185
0.00212177
0.0021217
0.00212163
0.00212156
0.00212149
0.00212142
0.00212136
0.00212129
0.00212123
0.00212116
0.0021211
0.00212104
0.00212098
0.00212093
0.00212087
0.00212082
0.00212076
0.00212071
0.00212066
0.0021206
0.00212055
0.00212051
0.00212046
0.00212041
0.00212036
0.00212032
0.00212027
0.00212023
0.00212019
0.00212015
0.00212011
0.00212007
0.00212003
0.00211999
0.00211995
0.00211991
0.00211988
0.00211984
0.00211981
0.00211977
0.00211974
0.00211971
0.00211967
0.00211964
0.00211961
0.00211958
0.00211955
0.00211952
0.0021195
0.00211947
0.00211944
0.00211941
0.00211939
0.00211936
0.00211934
0.00211931
0.00211929
0.00211927
0.00211924
0.00211922
0.0021192
0.00211918
0.00211916
0.00211914
0.00211912
0.0021191
0.00211908
0.00211906
0.00211904
0.00211902
0.00211901
0.00211899
0.00211897
0.00211895
0.00211894
0.00211892
0.00211891
0.00211889
0.00211888
0.00211886
0.00211885
0.00211883
0.00211882
0.00211881
0.0021188
0.00211878
0.00211877
0.00211876
0.00211875
0.00211873
0.00211872
0.00211871
0.0021187
0.00211869
0.00211868
0.00211867
0.00211866
0.00211865
0.00211864
0.00211863
0.00211862
0.00211861
0.00211861
0.0021186
0.00211859
0.00211858
0.00211857
0.00211857
0.00211856
0.00211855
0.00211854
0.00211854
0.00211853
0.00211852
0.00211852
0.00211851
0.0021185
0.0021185
0.00211849
0.00211849
0.00211848
0.00211847
0.00211847
0.00211846
0.00211846
0.00211845
0.00211845
0.00211844
0.00211844
0.00211844
0.00211843
0.00211843
0.00211842
0.00211842
0.00211841
0.00211841
0.00211841
0.0021184
0.0021184
0.0021184
0.00211839
0.00211839
0.00211838
0.00211838
0.00211838
0.00211838
0.00211837
0.00211837
0.00211837
0.00211836
0.00211836
0.00211836
0.00211836
0.00211835
0.00211835
0.00211835
0.00211835
0.00211834
0.00211834
0.00211834
0.00211834
0.00211834
0.00211833
0.00211833
0.00211833
0.00211833
0.00211833
0.00211832
0.00211832
0.00211832
0.00211832
0.00211832
0.00211832
0.00211832
0.00211831
0.00211831
0.00211831
0.00211831
0.00211831
0.00211831
0.00211831
0.00211831
0.0021183
0.0021183
0.0021183
0.0021183
0.0021183
0.0021183
0.0021183
0.0021183
0.0021183
0.0021183
0.00211829
0.00211829
0.00211829
0.00211829
0.00211829
0.00211829
0.00211829
0.00211829
0.00211829
0.00211829
0.00211829
0.00211829
0.00211829
0.00211829
0.00211829
0.00211829
0.00211829
0.00211829
0.00211829
0.00211828
0.00211828
0.00211828
0.00211828
0.00211828
0.00211828
0.00211828
0.00211828
0.00211828
0.00211828
0.00211828
0.00211828
0.00211828
0.00211828
0.00211828
0.00211828
0.00211828
0.00211828
0.00211828
0.00211828
0.00211828
0.00211828
0.00211828
0.00211828
0.00211828
0.00211828
0.00211828
0.00211828
0.00211828
0.00211828
0.00211828
0.00211828
0.00211828
0.00211828
0.00211828
0.00211828
0.00211829
0.00211829
0.00211829
0.00211829
0.00211829
0.00211829
0.00211829
0.00211829
0.00211829
0.00211829
0.00211829
0.00211829
0.00211829
0.00211829
0.00211829
0.00211829
0.00211829
0.00211829
0.0021183
0.0021183
0.0021183
0.0021183
0.0021183
0.0021183
0.0021183
0.0021183
0.0021183
0.0021183
0.0021183
0.00211831
0.00211831
0.00211831
0.00211831
0.00211831
0.00211831
0.00211831
0.00211831
0.00211832
0.00211832
0.00211832
0.00211832
0.00211832
0.00211832
0.00211832
0.00211833
0.00211833
0.00211833
0.00211833
0.00211833
0.00211834
0.00211834
0.00211834
0.00211834
0.00211834
0.00211835
0.00211835
0.00211835
0.00211835
0.00211836
0.00211836
0.00211836
0.00211836
0.00211837
0.00211837
0.00211837
0.00211837
0.00211838
0.00211838
0.00211838
0.00211839
0.00211839
0.00211839
0.0021184
0.0021184
0.0021184
0.00211841
0.00211841
0.00211841
0.00211842
0.00211842
0.00211843
0.00211843
0.00211844
0.00211844
0.00211844
0.00211845
0.00211845
0.00211846
0.00211846
0.00211847
0.00211847
0.00211848
0.00211849
0.00211849
0.0021185
0.0021185
0.00211851
0.00211852
0.00211852
0.00211853
0.00211853
0.00211854
0.00211855
0.00211856
0.00211856
0.00211857
0.00211858
0.00211859
0.00211859
0.0021186
0.00211861
0.00211862
0.00211863
0.00211864
0.00211865
0.00211866
0.00211867
0.00211868
0.00211869
0.0021187
0.00211871
0.00211872
0.00211873
0.00211874
0.00211875
0.00211876
0.00211878
0.00211879
0.0021188
0.00211881
0.00211883
0.00211884
0.00211885
0.00211887
0.00211888
0.0021189
0.00211891
0.00211893
0.00211894
0.00211896
0.00211898
0.00211899
0.00211901
0.00211903
0.00211905
0.00211907
0.00211908
0.0021191
0.00211912
0.00211914
0.00211916
0.00211919
0.00211921
0.00211923
0.00211925
0.00211927
0.0021193
0.00211932
0.00211935
0.00211937
0.0021194
0.00211942
0.00211945
0.00211948
0.0021195
0.00211953
0.00211956
0.00211959
0.00211962
0.00211965
0.00211968
0.00211971
0.00211975
0.00211978
0.00211981
0.00211985
0.00211988
0.00211992
0.00211996
0.00211999
0.00212003
0.00212007
0.00212011
0.00212015
0.0021202
0.00212024
0.00212028
0.00212033
0.00212037
0.00212042
0.00212046
0.00212051
0.00212056
0.00212061
0.00212066
0.00212072
0.00212077
0.00212082
0.00212088
0.00212094
0.00212099
0.00212105
0.00212111
0.00212117
0.00212124
0.0021213
0.00212136
0.00212143
0.0021215
0.00212157
0.00212164
0.00212171
0.00212178
0.00212185
0.00212193
0.00212201
0.00212209
0.00212217
0.00212225
0.00212233
0.00212242
0.0021225
0.00212259
0.00212268
0.00212277
0.00212287
0.00212296
0.00212306
0.00212316
0.00212326
0.00212336
0.00212347
0.00212358
0.00212368
0.0021238
0.00212391
0.00212402
0.00212414
0.00212426
0.00212438
0.00212451
0.00212463
0.00212476
0.00212489
0.00212503
0.00212516
0.0021253
0.00212544
0.00212559
0.00212573
0.00212588
0.00212603
0.00212619
0.00212634
0.0021265
0.00212667
0.00212683
0.002127
0.00212717
0.00212735
0.00212753
0.00212771
0.00212789
0.00212808
0.00212827
0.00212847
0.00212867
0.00212887
0.00212907
0.00212928
0.0021295
0.00212971
0.00212993
0.00213016
0.00213039
0.00213062
0.00213086
0.0021311
0.00213134
0.00213159
0.00213184
0.0021321
0.00213236
0.00213263
0.0021329
0.00213317
0.00213346
0.00213374
0.00213403
0.00213433
0.00213463
0.00213493
0.00213524
0.00213556
0.00213588
0.0021362
0.00213654
0.00213687
0.00213722
0.00213756
0.00213792
0.00213828
0.00213865
0.00213902
0.0021394
0.00213978
0.00214017
0.00214057
0.00214097
0.00214138
0.0021418
0.00214223
0.00214266
0.0021431
0.00214354
0.00214399
0.00214445
0.00214492
0.00214539
0.00214587
0.00214636
0.00214686
0.00214737
0.00214788
0.0021484
0.00214893
0.00214947
0.00215001
0.00215057
0.00215113
0.0021517
0.00215229
0.00215288
0.00215347
0.00215408
0.0021547
0.00215533
0.00215596
0.00215661
0.00215727
0.00215793
0.00215861
0.0021593
0.00215999
0.0021607
0.00216142
0.00216215
0.00216289
0.00216364
0.0021644
0.00216517
0.00216596
0.00216675
0.00216756
0.00216838
0.00216921
0.00217005
0.00217091
0.00217178
0.00217266
0.00217355
0.00217446
0.00217538
0.00217631
0.00217725
0.00217821
0.00217918
0.00218017
0.00218117
0.00218219
0.00218321
0.00218426
0.00218531
0.00218638
0.00218747
0.00218857
0.00218969
0.00219082
0.00219197
0.00219313
0.00219431
0.0021955
0.00219672
0.00219794
0.00219919
0.00220045
0.00220172
0.00220302
0.00220433
0.00220566
0.002207
0.00220837
0.00220975
0.00221115
0.00221257
0.002214
0.00221546
0.00221693
0.00221842
0.00221993
0.00222146
0.00222301
0.00222458
0.00222617
0.00222778
0.00222941
0.00223106
0.00223273
0.00223442
0.00223613
0.00223786
0.00223961
0.00224139
0.00224319
0.002245
0.00224684
0.00224871
0.00225059
0.0022525
0.00225443
0.00225638
0.00225836
0.00226036
0.00226238
0.00226442
0.00226649
0.00226859
0.00227071
0.00227285
0.00227502
0.00227721
0.00227942
0.00228167
0.00228393
0.00228622
0.00228854
0.00229089
0.00229326
0.00229565
0.00229807
0.00230052
0.002303
0.0023055
0.00230803
0.00231059
0.00231317
0.00231578
0.00231842
0.00232109
0.00232379
0.00232651
0.00232926
0.00233204
0.00233485
0.00233769
0.00234056
0.00234346
0.00234639
0.00234935
0.00235233
0.00235535
0.0023584
0.00236148
0.00236459
0.00236772
0.0023709
0.0023741
0.00237733
0.00238059
0.00238389
0.00238722
0.00239058
0.00239397
0.00239739
0.00240085
0.00240434
0.00240786
0.00241142
0.00241501
0.00241863
0.00242228
0.00242597
0.00242969
0.00243345
0.00243724
0.00244106
0.00244492
0.00244881
0.00245274
0.0024567
0.0024607
0.00246473
0.0024688
0.00247291
0.00247704
0.00248122
0.00248543
0.00248967
0.00249396
0.00249827
0.00250263
0.00250702
0.00251145
0.00251591
0.00252042
0.00252495
0.00252953
0.00253414
0.00253879
0.00254348
0.00254821
0.00255297
0.00255777
0.00256261
0.00256749
0.00257241
0.00257736
0.00258236
0.00258739
0.00259246
0.00259757
0.00260272
0.00260791
0.00261314
0.00261841
0.00262371
0.00262906
0.00263445
0.00263987
0.00264534
0.00265085
0.00265639
0.00266198
0.00266761
0.00267328
0.00267899
0.00268474
0.00269053
0.00269636
0.00270223
0.00270815
0.00271411
0.0027201
0.00272614
0.00273222
0.00273835
0.00274451
0.00275072
0.00275697
0.00276326
0.00276959
0.00277597
0.00278238
0.00278885
0.00279535
0.0028019
0.00280849
0.00281512
0.00282179
0.00282851
0.00283527
0.00284208
0.00284893
0.00285582
0.00286276
0.00286974
0.00287676
0.00288383
0.00289094
0.0028981
0.0029053
0.00291254
0.00291983
0.00292716
0.00293454
0.00294196
0.00294943
0.00295694
0.0029645
0.0029721
0.00297975
0.00298744
0.00299518
0.00300296
0.00301079
0.00301866
0.00302658
0.00303454
0.00304255
0.00305061
0.00305871
0.00306686
0.00307505
0.00308329
0.00309158
0.00309991
0.00310829
0.00311671
0.00312518
0.0031337
0.00314227
0.00315088
0.00315953
0.00316824
0.00317699
0.00318578
0.00319463
0.00320352
0.00321246
0.00322144
0.00323047
0.00323955
0.00324868
0.00325785
0.00326708
0.00327634
0.00328566
0.00329502
0.00330443
0.00331389
0.0033234
0.00333295
0.00334255
0.0033522
0.00336189
0.00337164
0.00338143
0.00339127
0.00340116
0.00341109
0.00342107
0.0034311
0.00344118
0.00345131
0.00346148
0.0034717
0.00348197
0.00349229
0.00350266
0.00351307
0.00352353
0.00353404
0.0035446
0.00355521
0.00356586
0.00357656
0.00358731
0.00359811
0.00360895
0.00361985
0.00363079
0.00364178
0.00365281
0.0036639
0.00367503
0.00368621
0.00369743
0.00370871
0.00372003
0.0037314
0.00374282
0.00375429
0.0037658
0.00377736
0.00378896
0.00380062
0.00381232
0.00382407
0.00383587
0.00384771
0.0038596
0.00387153
0.00388352
0.00389555
0.00390762
0.00391975
0.00393191
0.00394413
0.00395639
0.0039687
0.00398105
0.00399345
0.0040059
0.00401839
0.00403092
0.00404351
0.00405613
0.0040688
0.00408152
0.00409428
0.00410709
0.00411994
0.00413284
0.00414578
0.00415876
0.00417179
0.00418486
0.00419797
0.00421113
0.00422433
0.00423758
0.00425087
0.0042642
0.00427757
0.00429098
0.00430444
0.00431794
0.00433148
0.00434506
0.00435869
0.00437235
0.00438605
0.0043998
0.00441359
0.00442741
0.00444128
0.00445518
0.00446913
0.00448311
0.00449714
0.0045112
0.0045253
0.00453944
0.00455361
0.00456783
0.00458208
0.00459636
0.00461069
0.00462505
0.00463945
0.00465388
0.00466835
0.00468285
0.00469739
0.00471196
0.00472656
0.0047412
0.00475588
0.00477059
0.00478533
0.0048001
0.0048149
0.00482974
0.0048446
0.0048595
0.00487443
0.00488939
0.00490438
0.0049194
0.00493445
0.00494952
0.00496463
0.00497976
0.00499492
0.00501011
0.00502533
0.00504057
0.00505583
0.00507113
0.00508644
0.00510178
0.00511715
0.00513254
0.00514795
0.00516339
0.00517885
0.00519433
0.00520983
0.00522535
0.00524089
0.00525646
0.00527204
0.00528764
0.00530326
0.0053189
0.00533455
0.00535023
0.00536592
0.00538162
0.00539734
0.00541308
0.00542883
0.00544459
0.00546037
0.00547616
0.00549196
0.00550777
0.0055236
0.00553944
0.00555528
0.00557114
0.005587
0.00560287
0.00561875
0.00563464
0.00565053
0.00566643
0.00568234
0.00569825
0.00571416
0.00573008
0.005746
0.00576192
0.00577785
0.00579377
0.0058097
0.00582562
0.00584155
0.00585747
0.00587339
0.00588931
0.00590522
0.00592113
0.00593703
0.00595293
0.00596882
0.00598471
0.00600058
0.00601645
0.00603231
0.00604816
0.006064
0.00607982
0.00609564
0.00611144
0.00612723
0.006143
0.00615876
0.0061745
0.00619022
0.00620593
0.00622162
0.00623729
0.00625293
0.00626856
0.00628417
0.00629975
0.00631531
0.00633084
0.00634635
0.00636183
0.00637729
0.00639271
0.00640811
0.00642348
0.00643882
0.00645412
0.00646939
0.00648463
0.00649983
0.006515
0.00653013
0.00654522
0.00656028
0.00657529
0.00659026
0.00660519
0.00662007
0.00663491
0.00664971
0.00666445
0.00667915
0.0066938
0.0067084
0.00672295
0.00673744
0.00675188
0.00676626
0.00678058
0.00679485
0.00680905
0.00682319
0.00683727
0.00685128
0.00686523
0.00687911
0.00689292
0.00690666
0.00692032
0.00693391
0.00694742
0.00696085
0.0069742
0.00698747
0.00700065
0.00701375
0.00702676
0.00703967
0.00705249
0.00706522
0.00707784
0.00709037
0.00710279
0.0071151
0.00712731
0.0071394
0.00715138
0.00716323
0.00717497
0.00718658
0.00719806
0.00720941
0.00722062
0.00723169
0.00724262
0.0072534
0.00726403
0.00727449
0.0072848
0.00729493
0.0073049
0.00731468
0.00732428
0.00733369
0.0073429
0.0073519
0.00736069
0.00736927
0.00737761
0.00738572
0.00739359
0.0074012
0.00740854
0.00741561
0.0074224
0.00742888
0.00743506
0.00744091
0.00744642
0.00745158
0.00745637
0.00746076
0.00746475
0.00746832
0.00747143
0.00747408
0.00747622
0.00747784
0.00747891
0.00747939
0.00747925
0.00747845
0.00747696
0.00747472
0.00747169
0.00746782
0.00746305
0.00745731
0.00745053
0.00744263
0.00743353
0.00742313
0.00741133
0.00739799
0.00738299
0.00736617
0.00734735
0.00732635
0.00730292
0.00727682
0.00724775
0.00721534
0.00717921
0.00713886
0.00709374
0.00704316
0.00698631
0.0069222
0.00684961
0.00676701
0.0066725
0.00656363
0.0064372
0.00628898
0.00611325
0.00590205
0.00564409
0.00532294
0.00491463
0.00438624
0.00370942
0.00296015
0.00263531
)
;

boundaryField
{
    top_wall
    {
        type            kLowReWallFunction;
        value           uniform 8.2341e-06;
    }
    inlet
    {
        type            cyclic;
    }
    bot_wall
    {
        type            kLowReWallFunction;
        value           uniform 8.23409e-06;
    }
    outlet
    {
        type            cyclic;
    }
    frontAndBack
    {
        type            empty;
    }
}


// ************************************************************************* //
