/*--------------------------------*- C++ -*----------------------------------*\
| =========                 |                                                 |
| \\      /  F ield         | OpenFOAM: The Open Source CFD Toolbox           |
|  \\    /   O peration     | Version:  2312                                  |
|   \\  /    A nd           | Website:  www.openfoam.com                      |
|    \\/     M anipulation  |                                                 |
\*---------------------------------------------------------------------------*/
FoamFile
{
    version     2.0;
    format      ascii;
    arch        "LSB;label=32;scalar=64";
    class       volScalarField;
    location    "22.23";
    object      nut;
}
// * * * * * * * * * * * * * * * * * * * * * * * * * * * * * * * * * * * * * //

dimensions      [0 2 -1 0 0 0 0];

internalField   nonuniform List<scalar> 
2000
(
5.41145e-06
1.26617e-05
2.82269e-05
4.87444e-05
7.10199e-05
9.36945e-05
0.000116273
0.000138577
0.000160548
0.000182172
0.000203456
0.000224411
0.000245054
0.0002654
0.000285464
0.000305258
0.000324796
0.000344088
0.000363144
0.000381974
0.000400586
0.000418986
0.000437182
0.00045518
0.000472986
0.000490604
0.00050804
0.000525298
0.000542382
0.000559296
0.000576042
0.000592626
0.000609049
0.000625315
0.000641425
0.000657384
0.000673193
0.000688855
0.000704372
0.000719745
0.000734978
0.000750071
0.000765027
0.000779847
0.000794533
0.000809087
0.000823511
0.000837805
0.000851971
0.000866011
0.000879926
0.000893717
0.000907386
0.000920933
0.000934361
0.000947669
0.00096086
0.000973935
0.000986894
0.000999739
0.00101247
0.00102509
0.0010376
0.00104999
0.00106228
0.00107446
0.00108654
0.0010985
0.00111036
0.00112212
0.00113377
0.00114532
0.00115676
0.00116811
0.00117935
0.0011905
0.00120154
0.00121249
0.00122334
0.00123409
0.00124475
0.00125531
0.00126578
0.00127615
0.00128643
0.00129662
0.00130672
0.00131672
0.00132664
0.00133647
0.0013462
0.00135585
0.00136542
0.00137489
0.00138428
0.00139358
0.0014028
0.00141193
0.00142099
0.00142995
0.00143884
0.00144764
0.00145636
0.001465
0.00147356
0.00148205
0.00149045
0.00149877
0.00150702
0.00151519
0.00152328
0.0015313
0.00153924
0.0015471
0.0015549
0.00156261
0.00157026
0.00157783
0.00158533
0.00159276
0.00160012
0.0016074
0.00161462
0.00162176
0.00162884
0.00163585
0.00164279
0.00164966
0.00165647
0.00166321
0.00166988
0.00167649
0.00168303
0.0016895
0.00169592
0.00170227
0.00170855
0.00171477
0.00172093
0.00172703
0.00173307
0.00173904
0.00174496
0.00175081
0.00175661
0.00176234
0.00176802
0.00177364
0.0017792
0.0017847
0.00179014
0.00179553
0.00180086
0.00180614
0.00181136
0.00181653
0.00182164
0.00182669
0.0018317
0.00183664
0.00184154
0.00184638
0.00185117
0.00185591
0.0018606
0.00186523
0.00186982
0.00187435
0.00187883
0.00188327
0.00188765
0.00189199
0.00189627
0.00190051
0.0019047
0.00190884
0.00191294
0.00191698
0.00192099
0.00192494
0.00192885
0.00193271
0.00193653
0.0019403
0.00194403
0.00194771
0.00195135
0.00195494
0.0019585
0.001962
0.00196547
0.00196889
0.00197227
0.00197561
0.00197891
0.00198216
0.00198537
0.00198855
0.00199168
0.00199477
0.00199782
0.00200083
0.00200381
0.00200674
0.00200963
0.00201249
0.0020153
0.00201808
0.00202082
0.00202352
0.00202619
0.00202882
0.00203141
0.00203396
0.00203648
0.00203896
0.0020414
0.00204381
0.00204618
0.00204852
0.00205082
0.00205309
0.00205532
0.00205752
0.00205968
0.00206181
0.00206391
0.00206597
0.00206799
0.00206999
0.00207195
0.00207388
0.00207577
0.00207763
0.00207946
0.00208126
0.00208302
0.00208476
0.00208646
0.00208812
0.00208976
0.00209137
0.00209294
0.00209449
0.002096
0.00209748
0.00209893
0.00210036
0.00210175
0.00210311
0.00210444
0.00210574
0.00210701
0.00210825
0.00210946
0.00211064
0.0021118
0.00211292
0.00211402
0.00211508
0.00211612
0.00211713
0.00211811
0.00211906
0.00211998
0.00212088
0.00212175
0.00212259
0.0021234
0.00212418
0.00212494
0.00212567
0.00212637
0.00212704
0.00212769
0.00212831
0.0021289
0.00212946
0.00213
0.00213051
0.002131
0.00213145
0.00213188
0.00213229
0.00213267
0.00213302
0.00213334
0.00213364
0.00213392
0.00213416
0.00213438
0.00213458
0.00213475
0.00213489
0.00213501
0.0021351
0.00213517
0.00213521
0.00213523
0.00213522
0.00213518
0.00213512
0.00213504
0.00213493
0.00213479
0.00213463
0.00213444
0.00213423
0.002134
0.00213374
0.00213346
0.00213315
0.00213281
0.00213246
0.00213208
0.00213167
0.00213124
0.00213078
0.00213031
0.0021298
0.00212928
0.00212873
0.00212815
0.00212755
0.00212693
0.00212629
0.00212562
0.00212493
0.00212421
0.00212347
0.00212271
0.00212192
0.00212112
0.00212028
0.00211943
0.00211855
0.00211765
0.00211673
0.00211579
0.00211482
0.00211383
0.00211282
0.00211178
0.00211073
0.00210965
0.00210855
0.00210743
0.00210628
0.00210512
0.00210393
0.00210273
0.0021015
0.00210025
0.00209897
0.00209768
0.00209637
0.00209504
0.00209368
0.00209231
0.00209091
0.0020895
0.00208806
0.00208661
0.00208513
0.00208364
0.00208213
0.00208059
0.00207904
0.00207747
0.00207588
0.00207427
0.00207265
0.002071
0.00206934
0.00206765
0.00206595
0.00206424
0.0020625
0.00206075
0.00205898
0.00205719
0.00205539
0.00205357
0.00205173
0.00204988
0.00204801
0.00204612
0.00204422
0.00204231
0.00204037
0.00203843
0.00203646
0.00203449
0.0020325
0.00203049
0.00202847
0.00202644
0.00202439
0.00202233
0.00202026
0.00201817
0.00201607
0.00201396
0.00201183
0.0020097
0.00200755
0.00200539
0.00200322
0.00200103
0.00199884
0.00199664
0.00199442
0.0019922
0.00198996
0.00198772
0.00198547
0.0019832
0.00198093
0.00197865
0.00197636
0.00197407
0.00197176
0.00196945
0.00196713
0.00196481
0.00196247
0.00196013
0.00195779
0.00195544
0.00195308
0.00195071
0.00194835
0.00194597
0.0019436
0.00194121
0.00193883
0.00193644
0.00193404
0.00193165
0.00192925
0.00192684
0.00192444
0.00192203
0.00191962
0.00191721
0.0019148
0.00191238
0.00190997
0.00190755
0.00190514
0.00190272
0.0019003
0.00189789
0.00189547
0.00189306
0.00189065
0.00188824
0.00188583
0.00188342
0.00188102
0.00187861
0.00187622
0.00187382
0.00187143
0.00186904
0.00186665
0.00186427
0.00186189
0.00185952
0.00185715
0.00185479
0.00185243
0.00185007
0.00184773
0.00184539
0.00184305
0.00184072
0.0018384
0.00183608
0.00183378
0.00183147
0.00182918
0.00182689
0.00182462
0.00182234
0.00182008
0.00181783
0.00181558
0.00181335
0.00181112
0.0018089
0.00180669
0.00180449
0.0018023
0.00180012
0.00179795
0.00179579
0.00179364
0.0017915
0.00178937
0.00178726
0.00178515
0.00178305
0.00178097
0.0017789
0.00177684
0.00177479
0.00177275
0.00177072
0.00176871
0.0017667
0.00176471
0.00176274
0.00176077
0.00175882
0.00175688
0.00175495
0.00175304
0.00175113
0.00174925
0.00174737
0.00174551
0.00174366
0.00174182
0.00174
0.00173819
0.00173639
0.00173461
0.00173284
0.00173109
0.00172935
0.00172762
0.00172591
0.00172421
0.00172252
0.00172085
0.00171919
0.00171754
0.00171591
0.0017143
0.00171269
0.00171111
0.00170953
0.00170797
0.00170642
0.00170489
0.00170337
0.00170187
0.00170038
0.0016989
0.00169744
0.00169599
0.00169455
0.00169313
0.00169173
0.00169033
0.00168895
0.00168759
0.00168624
0.0016849
0.00168357
0.00168226
0.00168097
0.00167968
0.00167841
0.00167716
0.00167591
0.00167468
0.00167347
0.00167226
0.00167107
0.0016699
0.00166873
0.00166758
0.00166644
0.00166532
0.00166421
0.00166311
0.00166202
0.00166095
0.00165989
0.00165884
0.0016578
0.00165678
0.00165577
0.00165477
0.00165378
0.0016528
0.00165184
0.00165089
0.00164995
0.00164902
0.00164811
0.0016472
0.00164631
0.00164542
0.00164455
0.00164369
0.00164285
0.00164201
0.00164118
0.00164037
0.00163956
0.00163877
0.00163798
0.00163721
0.00163645
0.00163569
0.00163495
0.00163422
0.0016335
0.00163278
0.00163208
0.00163139
0.0016307
0.00163003
0.00162936
0.00162871
0.00162806
0.00162743
0.0016268
0.00162618
0.00162557
0.00162497
0.00162438
0.00162379
0.00162322
0.00162265
0.00162209
0.00162154
0.001621
0.00162047
0.00161994
0.00161942
0.00161891
0.00161841
0.00161791
0.00161743
0.00161695
0.00161647
0.00161601
0.00161555
0.0016151
0.00161465
0.00161421
0.00161378
0.00161336
0.00161294
0.00161253
0.00161213
0.00161173
0.00161134
0.00161095
0.00161057
0.0016102
0.00160983
0.00160947
0.00160912
0.00160877
0.00160842
0.00160809
0.00160775
0.00160743
0.0016071
0.00160679
0.00160648
0.00160617
0.00160587
0.00160557
0.00160528
0.00160499
0.00160471
0.00160444
0.00160417
0.0016039
0.00160363
0.00160338
0.00160312
0.00160287
0.00160263
0.00160239
0.00160215
0.00160192
0.00160169
0.00160146
0.00160124
0.00160103
0.00160081
0.0016006
0.0016004
0.0016002
0.0016
0.0015998
0.00159961
0.00159942
0.00159924
0.00159906
0.00159888
0.0015987
0.00159853
0.00159836
0.0015982
0.00159804
0.00159788
0.00159772
0.00159757
0.00159741
0.00159727
0.00159712
0.00159698
0.00159684
0.0015967
0.00159656
0.00159643
0.0015963
0.00159617
0.00159605
0.00159593
0.00159581
0.00159569
0.00159557
0.00159546
0.00159535
0.00159524
0.00159513
0.00159502
0.00159492
0.00159482
0.00159472
0.00159462
0.00159453
0.00159443
0.00159434
0.00159425
0.00159416
0.00159407
0.00159399
0.00159391
0.00159382
0.00159374
0.00159367
0.00159359
0.00159351
0.00159344
0.00159337
0.0015933
0.00159323
0.00159316
0.00159309
0.00159303
0.00159296
0.0015929
0.00159284
0.00159278
0.00159272
0.00159266
0.0015926
0.00159255
0.00159249
0.00159244
0.00159239
0.00159234
0.00159229
0.00159224
0.00159219
0.00159214
0.00159209
0.00159205
0.001592
0.00159196
0.00159192
0.00159188
0.00159184
0.0015918
0.00159176
0.00159172
0.00159168
0.00159165
0.00159161
0.00159157
0.00159154
0.00159151
0.00159147
0.00159144
0.00159141
0.00159138
0.00159135
0.00159132
0.00159129
0.00159126
0.00159124
0.00159121
0.00159118
0.00159116
0.00159113
0.00159111
0.00159108
0.00159106
0.00159104
0.00159101
0.00159099
0.00159097
0.00159095
0.00159093
0.00159091
0.00159089
0.00159087
0.00159085
0.00159083
0.00159081
0.00159079
0.00159078
0.00159076
0.00159074
0.00159073
0.00159071
0.0015907
0.00159068
0.00159067
0.00159065
0.00159064
0.00159063
0.00159061
0.0015906
0.00159059
0.00159057
0.00159056
0.00159055
0.00159054
0.00159053
0.00159052
0.0015905
0.00159049
0.00159048
0.00159047
0.00159046
0.00159045
0.00159045
0.00159044
0.00159043
0.00159042
0.00159041
0.0015904
0.00159039
0.00159039
0.00159038
0.00159037
0.00159036
0.00159036
0.00159035
0.00159034
0.00159034
0.00159033
0.00159032
0.00159032
0.00159031
0.0015903
0.0015903
0.00159029
0.00159029
0.00159028
0.00159028
0.00159027
0.00159027
0.00159026
0.00159026
0.00159025
0.00159025
0.00159024
0.00159024
0.00159024
0.00159023
0.00159023
0.00159022
0.00159022
0.00159022
0.00159021
0.00159021
0.00159021
0.0015902
0.0015902
0.0015902
0.00159019
0.00159019
0.00159019
0.00159019
0.00159018
0.00159018
0.00159018
0.00159018
0.00159017
0.00159017
0.00159017
0.00159017
0.00159016
0.00159016
0.00159016
0.00159016
0.00159016
0.00159015
0.00159015
0.00159015
0.00159015
0.00159015
0.00159015
0.00159014
0.00159014
0.00159014
0.00159014
0.00159014
0.00159014
0.00159014
0.00159013
0.00159013
0.00159013
0.00159013
0.00159013
0.00159013
0.00159013
0.00159013
0.00159013
0.00159012
0.00159012
0.00159012
0.00159012
0.00159012
0.00159012
0.00159012
0.00159012
0.00159012
0.00159012
0.00159012
0.00159012
0.00159011
0.00159011
0.00159011
0.00159011
0.00159011
0.00159011
0.00159011
0.00159011
0.00159011
0.00159011
0.00159011
0.00159011
0.00159011
0.00159011
0.00159011
0.00159011
0.00159011
0.00159011
0.00159011
0.00159011
0.0015901
0.0015901
0.0015901
0.0015901
0.0015901
0.0015901
0.0015901
0.0015901
0.0015901
0.0015901
0.0015901
0.0015901
0.0015901
0.0015901
0.0015901
0.0015901
0.0015901
0.0015901
0.0015901
0.0015901
0.0015901
0.0015901
0.0015901
0.0015901
0.0015901
0.0015901
0.0015901
0.0015901
0.0015901
0.0015901
0.0015901
0.0015901
0.0015901
0.0015901
0.0015901
0.0015901
0.0015901
0.0015901
0.0015901
0.0015901
0.0015901
0.0015901
0.0015901
0.0015901
0.0015901
0.0015901
0.0015901
0.0015901
0.0015901
0.0015901
0.0015901
0.0015901
0.0015901
0.0015901
0.0015901
0.0015901
0.0015901
0.0015901
0.0015901
0.0015901
0.0015901
0.0015901
0.0015901
0.0015901
0.0015901
0.0015901
0.0015901
0.0015901
0.0015901
0.0015901
0.0015901
0.0015901
0.0015901
0.0015901
0.0015901
0.0015901
0.0015901
0.0015901
0.0015901
0.0015901
0.0015901
0.0015901
0.0015901
0.0015901
0.0015901
0.0015901
0.0015901
0.0015901
0.0015901
0.0015901
0.0015901
0.0015901
0.00159011
0.00159011
0.00159011
0.00159011
0.00159011
0.00159011
0.00159011
0.00159011
0.00159011
0.00159011
0.00159011
0.00159011
0.00159011
0.00159011
0.00159011
0.00159011
0.00159011
0.00159011
0.00159011
0.00159011
0.00159011
0.00159012
0.00159012
0.00159012
0.00159012
0.00159012
0.00159012
0.00159012
0.00159012
0.00159012
0.00159012
0.00159012
0.00159012
0.00159013
0.00159013
0.00159013
0.00159013
0.00159013
0.00159013
0.00159013
0.00159013
0.00159013
0.00159014
0.00159014
0.00159014
0.00159014
0.00159014
0.00159014
0.00159014
0.00159015
0.00159015
0.00159015
0.00159015
0.00159015
0.00159015
0.00159016
0.00159016
0.00159016
0.00159016
0.00159016
0.00159017
0.00159017
0.00159017
0.00159017
0.00159017
0.00159018
0.00159018
0.00159018
0.00159018
0.00159019
0.00159019
0.00159019
0.0015902
0.0015902
0.0015902
0.00159021
0.00159021
0.00159021
0.00159022
0.00159022
0.00159022
0.00159023
0.00159023
0.00159023
0.00159024
0.00159024
0.00159025
0.00159025
0.00159025
0.00159026
0.00159026
0.00159027
0.00159027
0.00159028
0.00159028
0.00159029
0.00159029
0.0015903
0.00159031
0.00159031
0.00159032
0.00159032
0.00159033
0.00159034
0.00159034
0.00159035
0.00159036
0.00159036
0.00159037
0.00159038
0.00159039
0.0015904
0.0015904
0.00159041
0.00159042
0.00159043
0.00159044
0.00159045
0.00159046
0.00159047
0.00159048
0.00159049
0.0015905
0.00159051
0.00159052
0.00159053
0.00159054
0.00159055
0.00159056
0.00159058
0.00159059
0.0015906
0.00159061
0.00159063
0.00159064
0.00159065
0.00159067
0.00159068
0.0015907
0.00159071
0.00159073
0.00159075
0.00159076
0.00159078
0.0015908
0.00159081
0.00159083
0.00159085
0.00159087
0.00159089
0.00159091
0.00159093
0.00159095
0.00159097
0.00159099
0.00159101
0.00159104
0.00159106
0.00159108
0.00159111
0.00159113
0.00159116
0.00159118
0.00159121
0.00159124
0.00159126
0.00159129
0.00159132
0.00159135
0.00159138
0.00159141
0.00159144
0.00159148
0.00159151
0.00159154
0.00159158
0.00159161
0.00159165
0.00159168
0.00159172
0.00159176
0.0015918
0.00159184
0.00159188
0.00159192
0.00159196
0.00159201
0.00159205
0.0015921
0.00159214
0.00159219
0.00159224
0.00159229
0.00159234
0.00159239
0.00159244
0.00159249
0.00159255
0.0015926
0.00159266
0.00159272
0.00159278
0.00159284
0.0015929
0.00159296
0.00159303
0.00159309
0.00159316
0.00159323
0.0015933
0.00159337
0.00159344
0.00159352
0.00159359
0.00159367
0.00159375
0.00159383
0.00159391
0.00159399
0.00159408
0.00159416
0.00159425
0.00159434
0.00159443
0.00159453
0.00159462
0.00159472
0.00159482
0.00159492
0.00159503
0.00159513
0.00159524
0.00159535
0.00159546
0.00159557
0.00159569
0.00159581
0.00159593
0.00159605
0.00159618
0.0015963
0.00159643
0.00159657
0.0015967
0.00159684
0.00159698
0.00159712
0.00159727
0.00159742
0.00159757
0.00159772
0.00159788
0.00159804
0.0015982
0.00159837
0.00159853
0.00159871
0.00159888
0.00159906
0.00159924
0.00159943
0.00159961
0.00159981
0.0016
0.0016002
0.0016004
0.00160061
0.00160082
0.00160103
0.00160125
0.00160147
0.00160169
0.00160192
0.00160215
0.00160239
0.00160263
0.00160288
0.00160313
0.00160338
0.00160364
0.0016039
0.00160417
0.00160444
0.00160472
0.001605
0.00160528
0.00160557
0.00160587
0.00160617
0.00160648
0.00160679
0.00160711
0.00160743
0.00160776
0.00160809
0.00160843
0.00160877
0.00160912
0.00160947
0.00160984
0.0016102
0.00161058
0.00161096
0.00161134
0.00161173
0.00161213
0.00161253
0.00161295
0.00161336
0.00161379
0.00161422
0.00161466
0.0016151
0.00161555
0.00161601
0.00161648
0.00161695
0.00161743
0.00161792
0.00161841
0.00161891
0.00161942
0.00161994
0.00162047
0.001621
0.00162155
0.0016221
0.00162265
0.00162322
0.0016238
0.00162438
0.00162497
0.00162557
0.00162618
0.0016268
0.00162743
0.00162807
0.00162871
0.00162937
0.00163003
0.00163071
0.00163139
0.00163208
0.00163279
0.0016335
0.00163422
0.00163495
0.0016357
0.00163645
0.00163721
0.00163798
0.00163877
0.00163956
0.00164037
0.00164118
0.00164201
0.00164285
0.0016437
0.00164456
0.00164543
0.00164631
0.0016472
0.00164811
0.00164902
0.00164995
0.00165089
0.00165184
0.00165281
0.00165378
0.00165477
0.00165577
0.00165678
0.0016578
0.00165884
0.00165989
0.00166095
0.00166202
0.00166311
0.00166421
0.00166532
0.00166645
0.00166758
0.00166873
0.0016699
0.00167108
0.00167227
0.00167347
0.00167468
0.00167591
0.00167716
0.00167841
0.00167968
0.00168097
0.00168226
0.00168358
0.0016849
0.00168624
0.00168759
0.00168896
0.00169033
0.00169173
0.00169313
0.00169456
0.00169599
0.00169744
0.0016989
0.00170038
0.00170187
0.00170337
0.00170489
0.00170643
0.00170797
0.00170953
0.00171111
0.0017127
0.0017143
0.00171592
0.00171755
0.00171919
0.00172085
0.00172252
0.00172421
0.00172591
0.00172762
0.00172935
0.00173109
0.00173285
0.00173461
0.0017364
0.00173819
0.00174
0.00174182
0.00174366
0.00174551
0.00174737
0.00174925
0.00175114
0.00175304
0.00175495
0.00175688
0.00175882
0.00176077
0.00176274
0.00176472
0.00176671
0.00176871
0.00177072
0.00177275
0.00177479
0.00177684
0.0017789
0.00178097
0.00178306
0.00178515
0.00178726
0.00178938
0.0017915
0.00179364
0.00179579
0.00179795
0.00180012
0.0018023
0.00180449
0.00180669
0.0018089
0.00181112
0.00181335
0.00181558
0.00181783
0.00182008
0.00182235
0.00182462
0.0018269
0.00182918
0.00183148
0.00183378
0.00183609
0.0018384
0.00184072
0.00184305
0.00184539
0.00184773
0.00185008
0.00185243
0.00185479
0.00185715
0.00185952
0.00186189
0.00186427
0.00186665
0.00186904
0.00187143
0.00187382
0.00187622
0.00187862
0.00188102
0.00188342
0.00188583
0.00188824
0.00189065
0.00189306
0.00189548
0.00189789
0.00190031
0.00190272
0.00190514
0.00190755
0.00190997
0.00191238
0.0019148
0.00191721
0.00191962
0.00192203
0.00192444
0.00192684
0.00192925
0.00193165
0.00193404
0.00193644
0.00193883
0.00194121
0.0019436
0.00194597
0.00194835
0.00195072
0.00195308
0.00195544
0.00195779
0.00196014
0.00196247
0.00196481
0.00196713
0.00196945
0.00197177
0.00197407
0.00197637
0.00197865
0.00198093
0.00198321
0.00198547
0.00198772
0.00198997
0.0019922
0.00199442
0.00199664
0.00199884
0.00200104
0.00200322
0.00200539
0.00200755
0.0020097
0.00201183
0.00201396
0.00201607
0.00201817
0.00202026
0.00202233
0.00202439
0.00202644
0.00202847
0.00203049
0.0020325
0.00203449
0.00203647
0.00203843
0.00204038
0.00204231
0.00204422
0.00204613
0.00204801
0.00204988
0.00205173
0.00205357
0.00205539
0.00205719
0.00205898
0.00206075
0.0020625
0.00206424
0.00206596
0.00206766
0.00206934
0.002071
0.00207265
0.00207427
0.00207588
0.00207747
0.00207904
0.0020806
0.00208213
0.00208364
0.00208514
0.00208661
0.00208807
0.0020895
0.00209092
0.00209231
0.00209369
0.00209504
0.00209637
0.00209769
0.00209898
0.00210025
0.0021015
0.00210273
0.00210394
0.00210512
0.00210629
0.00210743
0.00210855
0.00210965
0.00211073
0.00211179
0.00211282
0.00211383
0.00211482
0.00211579
0.00211673
0.00211766
0.00211856
0.00211943
0.00212029
0.00212112
0.00212193
0.00212271
0.00212347
0.00212421
0.00212493
0.00212562
0.00212629
0.00212693
0.00212756
0.00212815
0.00212873
0.00212928
0.0021298
0.00213031
0.00213079
0.00213124
0.00213167
0.00213208
0.00213246
0.00213282
0.00213315
0.00213346
0.00213374
0.002134
0.00213424
0.00213445
0.00213463
0.00213479
0.00213493
0.00213504
0.00213512
0.00213518
0.00213522
0.00213523
0.00213521
0.00213517
0.0021351
0.00213501
0.00213489
0.00213475
0.00213458
0.00213439
0.00213417
0.00213392
0.00213365
0.00213335
0.00213302
0.00213267
0.00213229
0.00213189
0.00213146
0.002131
0.00213051
0.00213
0.00212946
0.0021289
0.00212831
0.00212769
0.00212704
0.00212637
0.00212567
0.00212494
0.00212418
0.0021234
0.00212259
0.00212175
0.00212088
0.00211999
0.00211906
0.00211811
0.00211713
0.00211612
0.00211509
0.00211402
0.00211292
0.0021118
0.00211065
0.00210946
0.00210825
0.00210701
0.00210574
0.00210444
0.00210311
0.00210175
0.00210036
0.00209894
0.00209748
0.002096
0.00209449
0.00209295
0.00209137
0.00208976
0.00208813
0.00208646
0.00208476
0.00208302
0.00208126
0.00207946
0.00207763
0.00207577
0.00207388
0.00207195
0.00206999
0.002068
0.00206597
0.00206391
0.00206181
0.00205968
0.00205752
0.00205532
0.00205309
0.00205082
0.00204852
0.00204619
0.00204381
0.0020414
0.00203896
0.00203648
0.00203396
0.00203141
0.00202882
0.00202619
0.00202353
0.00202082
0.00201808
0.00201531
0.00201249
0.00200963
0.00200674
0.00200381
0.00200084
0.00199782
0.00199477
0.00199168
0.00198855
0.00198538
0.00198216
0.00197891
0.00197561
0.00197227
0.00196889
0.00196547
0.001962
0.0019585
0.00195495
0.00195135
0.00194771
0.00194403
0.0019403
0.00193653
0.00193271
0.00192885
0.00192494
0.00192099
0.00191699
0.00191294
0.00190884
0.0019047
0.00190051
0.00189627
0.00189199
0.00188765
0.00188327
0.00187883
0.00187435
0.00186982
0.00186523
0.0018606
0.00185591
0.00185117
0.00184638
0.00184154
0.00183665
0.0018317
0.00182669
0.00182164
0.00181653
0.00181136
0.00180614
0.00180087
0.00179553
0.00179015
0.0017847
0.0017792
0.00177364
0.00176802
0.00176234
0.00175661
0.00175081
0.00174496
0.00173904
0.00173307
0.00172703
0.00172093
0.00171477
0.00170855
0.00170227
0.00169592
0.0016895
0.00168303
0.00167649
0.00166988
0.00166321
0.00165647
0.00164966
0.00164279
0.00163585
0.00162884
0.00162176
0.00161462
0.0016074
0.00160012
0.00159276
0.00158533
0.00157783
0.00157026
0.00156262
0.0015549
0.00154711
0.00153924
0.0015313
0.00152328
0.00151519
0.00150702
0.00149877
0.00149045
0.00148205
0.00147356
0.001465
0.00145636
0.00144764
0.00143884
0.00142995
0.00142099
0.00141194
0.0014028
0.00139358
0.00138428
0.00137489
0.00136542
0.00135585
0.0013462
0.00133647
0.00132664
0.00131672
0.00130672
0.00129662
0.00128643
0.00127615
0.00126578
0.00125531
0.00124475
0.00123409
0.00122334
0.00121249
0.00120154
0.0011905
0.00117935
0.00116811
0.00115676
0.00114532
0.00113377
0.00112212
0.00111036
0.0010985
0.00108654
0.00107446
0.00106228
0.00105
0.0010376
0.00102509
0.00101247
0.000999739
0.000986894
0.000973935
0.000960861
0.00094767
0.000934361
0.000920933
0.000907386
0.000893717
0.000879926
0.000866011
0.000851971
0.000837805
0.000823511
0.000809088
0.000794534
0.000779847
0.000765027
0.000750071
0.000734978
0.000719745
0.000704372
0.000688855
0.000673194
0.000657384
0.000641426
0.000625315
0.000609049
0.000592626
0.000576042
0.000559296
0.000542382
0.000525298
0.00050804
0.000490604
0.000472986
0.00045518
0.000437182
0.000418986
0.000400586
0.000381974
0.000363144
0.000344088
0.000324796
0.000305258
0.000285464
0.0002654
0.000245054
0.000224411
0.000203456
0.000182172
0.000160548
0.000138577
0.000116273
9.36945e-05
7.10199e-05
4.87444e-05
2.82269e-05
1.26617e-05
5.41145e-06
)
;

boundaryField
{
    top_wall
    {
        type            nutLowReWallFunction;
        value           uniform 0;
    }
    inlet
    {
        type            cyclic;
    }
    bot_wall
    {
        type            nutLowReWallFunction;
        value           uniform 0;
    }
    outlet
    {
        type            cyclic;
    }
    frontAndBack
    {
        type            empty;
    }
}


// ************************************************************************* //
