# Wall shear stress
# Time          	patch           	min             	max             
0.5             	top_wall	(-5.17542645e-03 -7.10057304e-22 0.00000000e+00)	(-5.17542645e-03 -7.10057304e-22 0.00000000e+00)
0.5             	bot_wall	(-5.17542609e-03 -3.04491212e-19 0.00000000e+00)	(-5.17542609e-03 -3.04491212e-19 0.00000000e+00)
1               	top_wall	(-4.58900953e-03 -3.11333361e-22 0.00000000e+00)	(-4.58900953e-03 -3.11333361e-22 0.00000000e+00)
1               	bot_wall	(-4.58901029e-03 -3.06233641e-19 0.00000000e+00)	(-4.58901029e-03 -3.06233641e-19 0.00000000e+00)
1.5             	top_wall	(-4.26399309e-03 -5.50792872e-22 0.00000000e+00)	(-4.26399309e-03 -5.50792872e-22 0.00000000e+00)
1.5             	bot_wall	(-4.26399366e-03 -3.80700970e-19 0.00000000e+00)	(-4.26399366e-03 -3.80700970e-19 0.00000000e+00)
2               	top_wall	(-4.04091164e-03 -1.67897495e-22 0.00000000e+00)	(-4.04091164e-03 -1.67897495e-22 0.00000000e+00)
2               	bot_wall	(-4.04091188e-03 -8.14488851e-20 0.00000000e+00)	(-4.04091188e-03 -8.14488851e-20 0.00000000e+00)
2.5             	top_wall	(-3.87224130e-03 -2.90716782e-22 0.00000000e+00)	(-3.87224130e-03 -2.90716782e-22 0.00000000e+00)
2.5             	bot_wall	(-3.87224127e-03 -2.43940649e-20 0.00000000e+00)	(-3.87224127e-03 -2.43940649e-20 0.00000000e+00)
3               	top_wall	(-3.73743333e-03 -1.12495021e-22 0.00000000e+00)	(-3.73743333e-03 -1.12495021e-22 0.00000000e+00)
3               	bot_wall	(-3.73743319e-03 -2.89775218e-19 0.00000000e+00)	(-3.73743319e-03 -2.89775218e-19 0.00000000e+00)
3.5             	top_wall	(-3.62573640e-03 -6.54057796e-22 0.00000000e+00)	(-3.62573640e-03 -6.54057796e-22 0.00000000e+00)
3.5             	bot_wall	(-3.62573611e-03 3.88988200e-20 0.00000000e+00)	(-3.62573611e-03 3.88988200e-20 0.00000000e+00)
4               	top_wall	(-3.53081796e-03 1.35382260e-21 0.00000000e+00)	(-3.53081796e-03 1.35382260e-21 0.00000000e+00)
4               	bot_wall	(-3.53081752e-03 -3.55131404e-20 0.00000000e+00)	(-3.53081752e-03 -3.55131404e-20 0.00000000e+00)
4.5             	top_wall	(-3.44863229e-03 9.73246324e-22 0.00000000e+00)	(-3.44863229e-03 9.73246324e-22 0.00000000e+00)
4.5             	bot_wall	(-3.44863172e-03 -1.49579855e-19 0.00000000e+00)	(-3.44863172e-03 -1.49579855e-19 0.00000000e+00)
5               	top_wall	(-3.37643637e-03 -4.50850147e-22 0.00000000e+00)	(-3.37643637e-03 -4.50850147e-22 0.00000000e+00)
5               	bot_wall	(-3.37643569e-03 -2.47294271e-19 0.00000000e+00)	(-3.37643569e-03 -2.47294271e-19 0.00000000e+00)
5.5             	top_wall	(-3.31228401e-03 9.40320489e-22 0.00000000e+00)	(-3.31228401e-03 9.40320489e-22 0.00000000e+00)
5.5             	bot_wall	(-3.31228323e-03 -1.56031345e-19 0.00000000e+00)	(-3.31228323e-03 -1.56031345e-19 0.00000000e+00)
6               	top_wall	(-3.25474403e-03 -9.16315733e-22 0.00000000e+00)	(-3.25474403e-03 -9.16315733e-22 0.00000000e+00)
6               	bot_wall	(-3.25474317e-03 -8.23459389e-20 0.00000000e+00)	(-3.25474317e-03 -8.23459389e-20 0.00000000e+00)
6.5             	top_wall	(-3.20273310e-03 -2.76872459e-22 0.00000000e+00)	(-3.20273310e-03 -2.76872459e-22 0.00000000e+00)
6.5             	bot_wall	(-3.20273218e-03 6.04624734e-21 0.00000000e+00)	(-3.20273218e-03 6.04624734e-21 0.00000000e+00)
7               	top_wall	(-3.15541106e-03 -3.79589876e-23 0.00000000e+00)	(-3.15541106e-03 -3.79589876e-23 0.00000000e+00)
7               	bot_wall	(-3.15541010e-03 -2.66286695e-20 0.00000000e+00)	(-3.15541010e-03 -2.66286695e-20 0.00000000e+00)
7.5             	top_wall	(-3.11211371e-03 5.63738715e-22 0.00000000e+00)	(-3.11211371e-03 5.63738715e-22 0.00000000e+00)
7.5             	bot_wall	(-3.11211271e-03 -1.39879406e-19 0.00000000e+00)	(-3.11211271e-03 -1.39879406e-19 0.00000000e+00)
8               	top_wall	(-3.07230622e-03 6.76015405e-22 0.00000000e+00)	(-3.07230622e-03 6.76015405e-22 0.00000000e+00)
8               	bot_wall	(-3.07230519e-03 3.31912462e-20 0.00000000e+00)	(-3.07230519e-03 3.31912462e-20 0.00000000e+00)
8.5             	top_wall	(-3.03555196e-03 9.47961969e-22 0.00000000e+00)	(-3.03555196e-03 9.47961969e-22 0.00000000e+00)
8.5             	bot_wall	(-3.03555091e-03 -6.39783373e-20 0.00000000e+00)	(-3.03555091e-03 -6.39783373e-20 0.00000000e+00)
9               	top_wall	(-3.00148998e-03 7.49260556e-22 0.00000000e+00)	(-3.00148998e-03 7.49260556e-22 0.00000000e+00)
9               	bot_wall	(-3.00148893e-03 -1.75650253e-19 0.00000000e+00)	(-3.00148893e-03 -1.75650253e-19 0.00000000e+00)
9.5             	top_wall	(-2.96981827e-03 -5.24561872e-22 0.00000000e+00)	(-2.96981827e-03 -5.24561872e-22 0.00000000e+00)
9.5             	bot_wall	(-2.96981721e-03 -1.60891150e-20 0.00000000e+00)	(-2.96981721e-03 -1.60891150e-20 0.00000000e+00)
10              	top_wall	(-2.94028161e-03 2.28597976e-22 0.00000000e+00)	(-2.94028161e-03 2.28597976e-22 0.00000000e+00)
10              	bot_wall	(-2.94028055e-03 -2.03906530e-19 0.00000000e+00)	(-2.94028055e-03 -2.03906530e-19 0.00000000e+00)
10.5            	top_wall	(-2.91266262e-03 1.27219813e-21 0.00000000e+00)	(-2.91266262e-03 1.27219813e-21 0.00000000e+00)
10.5            	bot_wall	(-2.91266157e-03 -1.50756112e-19 0.00000000e+00)	(-2.91266157e-03 -1.50756112e-19 0.00000000e+00)
11              	top_wall	(-2.88677472e-03 6.12903050e-22 0.00000000e+00)	(-2.88677472e-03 6.12903050e-22 0.00000000e+00)
11              	bot_wall	(-2.88677368e-03 -3.05896776e-20 0.00000000e+00)	(-2.88677368e-03 -3.05896776e-20 0.00000000e+00)
11.5            	top_wall	(-2.86245630e-03 1.44201390e-21 0.00000000e+00)	(-2.86245630e-03 1.44201390e-21 0.00000000e+00)
11.5            	bot_wall	(-2.86245527e-03 -3.29337552e-19 0.00000000e+00)	(-2.86245527e-03 -3.29337552e-19 0.00000000e+00)
12              	top_wall	(-2.83956668e-03 6.46734270e-22 0.00000000e+00)	(-2.83956668e-03 6.46734270e-22 0.00000000e+00)
12              	bot_wall	(-2.83956566e-03 -2.49806856e-19 0.00000000e+00)	(-2.83956566e-03 -2.49806856e-19 0.00000000e+00)
12.5            	top_wall	(-2.81798268e-03 -3.15010793e-23 0.00000000e+00)	(-2.81798268e-03 -3.15010793e-23 0.00000000e+00)
12.5            	bot_wall	(-2.81798167e-03 2.22945025e-20 0.00000000e+00)	(-2.81798167e-03 2.22945025e-20 0.00000000e+00)
13              	top_wall	(-2.79759585e-03 2.03250090e-21 0.00000000e+00)	(-2.79759585e-03 2.03250090e-21 0.00000000e+00)
13              	bot_wall	(-2.79759486e-03 -8.04669114e-20 0.00000000e+00)	(-2.79759486e-03 -8.04669114e-20 0.00000000e+00)
13.5            	top_wall	(-2.77831048e-03 3.16392442e-22 0.00000000e+00)	(-2.77831048e-03 3.16392442e-22 0.00000000e+00)
13.5            	bot_wall	(-2.77830951e-03 2.76199326e-20 0.00000000e+00)	(-2.77830951e-03 2.76199326e-20 0.00000000e+00)
14              	top_wall	(-2.76004110e-03 -3.50104750e-22 0.00000000e+00)	(-2.76004110e-03 -3.50104750e-22 0.00000000e+00)
14              	bot_wall	(-2.76004014e-03 -9.43805513e-20 0.00000000e+00)	(-2.76004014e-03 -9.43805513e-20 0.00000000e+00)
14.5            	top_wall	(-2.74271158e-03 -4.16939739e-22 0.00000000e+00)	(-2.74271158e-03 -4.16939739e-22 0.00000000e+00)
14.5            	bot_wall	(-2.74271064e-03 -7.90675521e-20 0.00000000e+00)	(-2.74271064e-03 -7.90675521e-20 0.00000000e+00)
15              	top_wall	(-2.72625375e-03 1.47963686e-22 0.00000000e+00)	(-2.72625375e-03 1.47963686e-22 0.00000000e+00)
15              	bot_wall	(-2.72625283e-03 1.42169471e-20 0.00000000e+00)	(-2.72625283e-03 1.42169471e-20 0.00000000e+00)
15.5            	top_wall	(-2.71060632e-03 -1.39614142e-21 0.00000000e+00)	(-2.71060632e-03 -1.39614142e-21 0.00000000e+00)
15.5            	bot_wall	(-2.71060542e-03 -4.77719020e-20 0.00000000e+00)	(-2.71060542e-03 -4.77719020e-20 0.00000000e+00)
16              	top_wall	(-2.69571406e-03 -3.05712729e-22 0.00000000e+00)	(-2.69571406e-03 -3.05712729e-22 0.00000000e+00)
16              	bot_wall	(-2.69571317e-03 -3.09616335e-20 0.00000000e+00)	(-2.69571317e-03 -3.09616335e-20 0.00000000e+00)
16.5            	top_wall	(-2.68152693e-03 1.16180177e-21 0.00000000e+00)	(-2.68152693e-03 1.16180177e-21 0.00000000e+00)
16.5            	bot_wall	(-2.68152606e-03 -1.47890874e-19 0.00000000e+00)	(-2.68152606e-03 -1.47890874e-19 0.00000000e+00)
17              	top_wall	(-2.66799943e-03 -5.57458175e-22 0.00000000e+00)	(-2.66799943e-03 -5.57458175e-22 0.00000000e+00)
17              	bot_wall	(-2.66799858e-03 -3.39120574e-19 0.00000000e+00)	(-2.66799858e-03 -3.39120574e-19 0.00000000e+00)
17.5            	top_wall	(-2.65509023e-03 6.08524496e-22 0.00000000e+00)	(-2.65509023e-03 6.08524496e-22 0.00000000e+00)
17.5            	bot_wall	(-2.65508940e-03 -1.72115170e-19 0.00000000e+00)	(-2.65508940e-03 -1.72115170e-19 0.00000000e+00)
18              	top_wall	(-2.64276158e-03 2.56130461e-22 0.00000000e+00)	(-2.64276158e-03 2.56130461e-22 0.00000000e+00)
18              	bot_wall	(-2.64276076e-03 -3.38474350e-20 0.00000000e+00)	(-2.64276076e-03 -3.38474350e-20 0.00000000e+00)
18.5            	top_wall	(-2.63097901e-03 -3.26306743e-22 0.00000000e+00)	(-2.63097901e-03 -3.26306743e-22 0.00000000e+00)
18.5            	bot_wall	(-2.63097821e-03 -5.33051728e-20 0.00000000e+00)	(-2.63097821e-03 -5.33051728e-20 0.00000000e+00)
19              	top_wall	(-2.61971098e-03 -7.85624846e-22 0.00000000e+00)	(-2.61971098e-03 -7.85624846e-22 0.00000000e+00)
19              	bot_wall	(-2.61971020e-03 6.10126884e-20 0.00000000e+00)	(-2.61971020e-03 6.10126884e-20 0.00000000e+00)
19.5            	top_wall	(-2.60892853e-03 3.05229518e-21 0.00000000e+00)	(-2.60892853e-03 3.05229518e-21 0.00000000e+00)
19.5            	bot_wall	(-2.60892776e-03 -1.80059929e-19 0.00000000e+00)	(-2.60892776e-03 -1.80059929e-19 0.00000000e+00)
20              	top_wall	(-2.59860476e-03 -7.57572818e-24 0.00000000e+00)	(-2.59860476e-03 -7.57572818e-24 0.00000000e+00)
20              	bot_wall	(-2.59860401e-03 -2.50900807e-19 0.00000000e+00)	(-2.59860401e-03 -2.50900807e-19 0.00000000e+00)
20.5            	top_wall	(-2.58871506e-03 -7.28916984e-22 0.00000000e+00)	(-2.58871506e-03 -7.28916984e-22 0.00000000e+00)
20.5            	bot_wall	(-2.58871432e-03 -9.55608285e-20 0.00000000e+00)	(-2.58871432e-03 -9.55608285e-20 0.00000000e+00)
21              	top_wall	(-2.57923667e-03 1.63193292e-21 0.00000000e+00)	(-2.57923667e-03 1.63193292e-21 0.00000000e+00)
21              	bot_wall	(-2.57923595e-03 -3.30736961e-19 0.00000000e+00)	(-2.57923595e-03 -3.30736961e-19 0.00000000e+00)
21.5            	top_wall	(-2.57014854e-03 4.44683017e-22 0.00000000e+00)	(-2.57014854e-03 4.44683017e-22 0.00000000e+00)
21.5            	bot_wall	(-2.57014783e-03 -8.77973820e-20 0.00000000e+00)	(-2.57014783e-03 -8.77973820e-20 0.00000000e+00)
22              	top_wall	(-2.56143105e-03 -4.31811102e-22 0.00000000e+00)	(-2.56143105e-03 -4.31811102e-22 0.00000000e+00)
22              	bot_wall	(-2.56143037e-03 -1.25730857e-19 0.00000000e+00)	(-2.56143037e-03 -1.25730857e-19 0.00000000e+00)
