/*--------------------------------*- C++ -*----------------------------------*\
| =========                 |                                                 |
| \\      /  F ield         | OpenFOAM: The Open Source CFD Toolbox           |
|  \\    /   O peration     | Version:  2312                                  |
|   \\  /    A nd           | Website:  www.openfoam.com                      |
|    \\/     M anipulation  |                                                 |
\*---------------------------------------------------------------------------*/
FoamFile
{
    version     2.0;
    format      ascii;
    arch        "LSB;label=32;scalar=64";
    class       volScalarField;
    location    "0.59";
    object      nut;
}
// * * * * * * * * * * * * * * * * * * * * * * * * * * * * * * * * * * * * * //

dimensions      [0 2 -1 0 0 0 0];

internalField   nonuniform List<scalar> 
2000
(
5.86382e-07
1.01935e-06
1.85677e-06
3.12041e-06
4.7056e-06
6.46458e-06
8.27665e-06
1.00642e-05
1.1783e-05
1.34101e-05
1.49347e-05
1.6353e-05
1.76647e-05
1.8872e-05
1.99778e-05
2.09856e-05
2.18991e-05
2.27222e-05
2.34586e-05
2.41119e-05
2.46856e-05
2.51832e-05
2.56078e-05
2.59626e-05
2.62507e-05
2.64751e-05
2.66385e-05
2.67438e-05
2.67937e-05
2.67909e-05
2.67379e-05
2.66374e-05
2.64918e-05
2.63038e-05
2.60758e-05
2.58103e-05
2.55097e-05
2.51766e-05
2.48135e-05
2.44228e-05
2.40072e-05
2.35691e-05
2.31111e-05
2.26359e-05
2.21462e-05
2.16446e-05
2.11341e-05
2.06174e-05
2.00974e-05
1.95773e-05
1.906e-05
1.85488e-05
1.80468e-05
1.75575e-05
1.70843e-05
1.66307e-05
1.62002e-05
1.57966e-05
1.54234e-05
1.50845e-05
1.47836e-05
1.45242e-05
1.43099e-05
1.41443e-05
1.40304e-05
1.39712e-05
1.39693e-05
1.40267e-05
1.41448e-05
1.43247e-05
1.45662e-05
1.48689e-05
1.52313e-05
1.5651e-05
1.61252e-05
1.66502e-05
1.7222e-05
1.78361e-05
1.84879e-05
1.91726e-05
1.98857e-05
2.06229e-05
2.13803e-05
2.21541e-05
2.29414e-05
2.37397e-05
2.45469e-05
2.53617e-05
2.61833e-05
2.70115e-05
2.78466e-05
2.86899e-05
2.95428e-05
3.0408e-05
3.12885e-05
3.21883e-05
3.31124e-05
3.40668e-05
3.50585e-05
3.60962e-05
3.71898e-05
3.83514e-05
3.95952e-05
4.09379e-05
4.23996e-05
4.40038e-05
4.57784e-05
4.77567e-05
4.99777e-05
5.24879e-05
5.53418e-05
5.86033e-05
6.2347e-05
6.66593e-05
7.16391e-05
7.73986e-05
8.40635e-05
9.17726e-05
0.000100676
0.000110935
0.000122715
0.000136188
0.000151524
0.000168887
0.000188432
0.000210297
0.000234602
0.000261444
0.000290889
0.000322977
0.000357713
0.000395071
0.000434992
0.000477383
0.000522122
0.00056906
0.000618022
0.00066881
0.000721211
0.000774997
0.000829928
0.000885764
0.000942257
0.000999165
0.00105625
0.00111328
0.00117004
0.00122632
0.00128193
0.00133668
0.00139043
0.00144303
0.00149435
0.00154429
0.00159274
0.00163965
0.00168494
0.00172858
0.00177052
0.00181076
0.00184929
0.0018861
0.00192121
0.00195465
0.00198643
0.0020166
0.00204519
0.00207225
0.00209782
0.00212196
0.00214472
0.00216615
0.0021863
0.00220523
0.002223
0.00223967
0.00225527
0.00226988
0.00228354
0.0022963
0.00230821
0.00231932
0.00232968
0.00233933
0.00234831
0.00235666
0.00236442
0.00237163
0.00237833
0.00238454
0.0023903
0.00239564
0.00240059
0.00240517
0.0024094
0.00241332
0.00241694
0.00242029
0.00242338
0.00242623
0.00242887
0.00243129
0.00243353
0.00243559
0.00243749
0.00243924
0.00244085
0.00244233
0.00244369
0.00244494
0.00244609
0.00244715
0.00244812
0.00244901
0.00244983
0.00245058
0.00245126
0.00245189
0.00245247
0.002453
0.00245348
0.00245392
0.00245432
0.00245469
0.00245503
0.00245534
0.00245562
0.00245588
0.00245612
0.00245633
0.00245653
0.00245671
0.00245687
0.00245702
0.00245715
0.00245727
0.00245739
0.00245749
0.00245758
0.00245767
0.00245774
0.00245781
0.00245787
0.00245793
0.00245798
0.00245803
0.00245807
0.00245811
0.00245815
0.00245818
0.00245821
0.00245824
0.00245826
0.00245828
0.0024583
0.00245832
0.00245833
0.00245835
0.00245836
0.00245837
0.00245838
0.00245839
0.0024584
0.00245841
0.00245842
0.00245842
0.00245843
0.00245844
0.00245844
0.00245844
0.00245845
0.00245845
0.00245845
0.00245846
0.00245846
0.00245846
0.00245846
0.00245847
0.00245847
0.00245847
0.00245847
0.00245847
0.00245847
0.00245847
0.00245847
0.00245847
0.00245848
0.00245848
0.00245848
0.00245848
0.00245848
0.00245848
0.00245848
0.00245848
0.00245848
0.00245848
0.00245848
0.00245848
0.00245848
0.00245848
0.00245848
0.00245848
0.00245848
0.00245848
0.00245848
0.00245848
0.00245848
0.00245848
0.00245848
0.00245848
0.00245848
0.00245848
0.00245848
0.00245848
0.00245848
0.00245848
0.00245848
0.00245848
0.00245848
0.00245848
0.00245848
0.00245848
0.00245848
0.00245848
0.00245848
0.00245848
0.00245848
0.00245848
0.00245848
0.00245848
0.00245848
0.00245848
0.00245848
0.00245848
0.00245848
0.00245848
0.00245848
0.00245848
0.00245848
0.00245848
0.00245848
0.00245848
0.00245848
0.00245848
0.00245848
0.00245848
0.00245848
0.00245848
0.00245848
0.00245848
0.00245848
0.00245848
0.00245848
0.00245848
0.00245848
0.00245848
0.00245848
0.00245848
0.00245848
0.00245848
0.00245848
0.00245848
0.00245848
0.00245848
0.00245848
0.00245848
0.00245848
0.00245848
0.00245848
0.00245848
0.00245848
0.00245848
0.00245848
0.00245848
0.00245848
0.00245848
0.00245848
0.00245848
0.00245848
0.00245848
0.00245848
0.00245848
0.00245848
0.00245848
0.00245848
0.00245848
0.00245848
0.00245848
0.00245848
0.00245848
0.00245848
0.00245848
0.00245848
0.00245848
0.00245848
0.00245848
0.00245848
0.00245848
0.00245848
0.00245848
0.00245848
0.00245848
0.00245848
0.00245848
0.00245848
0.00245848
0.00245848
0.00245848
0.00245848
0.00245848
0.00245848
0.00245848
0.00245848
0.00245848
0.00245848
0.00245848
0.00245848
0.00245848
0.00245848
0.00245848
0.00245848
0.00245848
0.00245848
0.00245848
0.00245848
0.00245848
0.00245848
0.00245848
0.00245848
0.00245848
0.00245848
0.00245848
0.00245848
0.00245848
0.00245848
0.00245848
0.00245848
0.00245848
0.00245848
0.00245848
0.00245848
0.00245848
0.00245848
0.00245848
0.00245848
0.00245848
0.00245848
0.00245848
0.00245848
0.00245848
0.00245848
0.00245848
0.00245848
0.00245848
0.00245848
0.00245848
0.00245848
0.00245848
0.00245848
0.00245848
0.00245848
0.00245848
0.00245848
0.00245848
0.00245848
0.00245848
0.00245848
0.00245848
0.00245848
0.00245848
0.00245848
0.00245848
0.00245848
0.00245848
0.00245848
0.00245848
0.00245848
0.00245848
0.00245848
0.00245848
0.00245848
0.00245848
0.00245848
0.00245848
0.00245848
0.00245848
0.00245848
0.00245848
0.00245848
0.00245848
0.00245848
0.00245848
0.00245848
0.00245848
0.00245848
0.00245848
0.00245848
0.00245848
0.00245848
0.00245848
0.00245848
0.00245848
0.00245848
0.00245848
0.00245848
0.00245848
0.00245848
0.00245848
0.00245848
0.00245848
0.00245848
0.00245848
0.00245848
0.00245848
0.00245848
0.00245848
0.00245848
0.00245848
0.00245848
0.00245848
0.00245848
0.00245848
0.00245848
0.00245848
0.00245848
0.00245848
0.00245848
0.00245848
0.00245848
0.00245848
0.00245848
0.00245848
0.00245848
0.00245848
0.00245848
0.00245848
0.00245848
0.00245848
0.00245848
0.00245848
0.00245848
0.00245848
0.00245848
0.00245848
0.00245848
0.00245848
0.00245848
0.00245848
0.00245848
0.00245848
0.00245848
0.00245848
0.00245848
0.00245848
0.00245848
0.00245848
0.00245848
0.00245848
0.00245848
0.00245848
0.00245848
0.00245848
0.00245848
0.00245848
0.00245848
0.00245848
0.00245848
0.00245848
0.00245848
0.00245848
0.00245848
0.00245848
0.00245848
0.00245848
0.00245848
0.00245848
0.00245848
0.00245848
0.00245848
0.00245848
0.00245848
0.00245848
0.00245848
0.00245848
0.00245848
0.00245848
0.00245848
0.00245848
0.00245848
0.00245848
0.00245848
0.00245848
0.00245848
0.00245848
0.00245848
0.00245848
0.00245848
0.00245848
0.00245848
0.00245848
0.00245848
0.00245848
0.00245848
0.00245848
0.00245848
0.00245848
0.00245848
0.00245848
0.00245848
0.00245848
0.00245848
0.00245848
0.00245848
0.00245848
0.00245848
0.00245848
0.00245848
0.00245848
0.00245848
0.00245848
0.00245848
0.00245848
0.00245848
0.00245848
0.00245848
0.00245848
0.00245848
0.00245848
0.00245848
0.00245848
0.00245848
0.00245848
0.00245848
0.00245848
0.00245848
0.00245848
0.00245848
0.00245848
0.00245848
0.00245848
0.00245848
0.00245848
0.00245848
0.00245848
0.00245848
0.00245848
0.00245848
0.00245848
0.00245848
0.00245848
0.00245848
0.00245848
0.00245848
0.00245848
0.00245848
0.00245848
0.00245848
0.00245848
0.00245848
0.00245848
0.00245848
0.00245848
0.00245848
0.00245848
0.00245848
0.00245848
0.00245848
0.00245848
0.00245848
0.00245848
0.00245848
0.00245848
0.00245848
0.00245848
0.00245848
0.00245848
0.00245848
0.00245848
0.00245848
0.00245848
0.00245848
0.00245848
0.00245848
0.00245848
0.00245848
0.00245848
0.00245848
0.00245848
0.00245848
0.00245848
0.00245848
0.00245848
0.00245848
0.00245848
0.00245848
0.00245848
0.00245848
0.00245848
0.00245848
0.00245848
0.00245848
0.00245848
0.00245848
0.00245848
0.00245848
0.00245848
0.00245848
0.00245848
0.00245848
0.00245848
0.00245848
0.00245848
0.00245848
0.00245848
0.00245848
0.00245848
0.00245848
0.00245848
0.00245848
0.00245848
0.00245848
0.00245848
0.00245848
0.00245848
0.00245848
0.00245848
0.00245848
0.00245848
0.00245848
0.00245848
0.00245848
0.00245848
0.00245848
0.00245848
0.00245848
0.00245848
0.00245848
0.00245848
0.00245848
0.00245848
0.00245848
0.00245848
0.00245848
0.00245848
0.00245848
0.00245848
0.00245848
0.00245848
0.00245848
0.00245848
0.00245848
0.00245848
0.00245848
0.00245848
0.00245848
0.00245848
0.00245848
0.00245848
0.00245848
0.00245848
0.00245848
0.00245848
0.00245848
0.00245848
0.00245848
0.00245848
0.00245848
0.00245848
0.00245848
0.00245848
0.00245848
0.00245848
0.00245848
0.00245848
0.00245848
0.00245848
0.00245848
0.00245848
0.00245848
0.00245848
0.00245848
0.00245848
0.00245848
0.00245848
0.00245848
0.00245848
0.00245848
0.00245848
0.00245848
0.00245848
0.00245848
0.00245848
0.00245848
0.00245848
0.00245848
0.00245848
0.00245848
0.00245848
0.00245848
0.00245848
0.00245848
0.00245848
0.00245848
0.00245848
0.00245848
0.00245848
0.00245848
0.00245848
0.00245848
0.00245848
0.00245848
0.00245848
0.00245848
0.00245848
0.00245848
0.00245848
0.00245848
0.00245848
0.00245848
0.00245848
0.00245848
0.00245848
0.00245848
0.00245848
0.00245848
0.00245848
0.00245848
0.00245848
0.00245848
0.00245848
0.00245848
0.00245848
0.00245848
0.00245848
0.00245848
0.00245848
0.00245848
0.00245848
0.00245848
0.00245848
0.00245848
0.00245848
0.00245848
0.00245848
0.00245848
0.00245848
0.00245848
0.00245848
0.00245848
0.00245848
0.00245848
0.00245848
0.00245848
0.00245848
0.00245848
0.00245848
0.00245848
0.00245848
0.00245848
0.00245848
0.00245848
0.00245848
0.00245848
0.00245848
0.00245848
0.00245848
0.00245848
0.00245848
0.00245848
0.00245848
0.00245848
0.00245848
0.00245848
0.00245848
0.00245848
0.00245848
0.00245848
0.00245848
0.00245848
0.00245848
0.00245848
0.00245848
0.00245848
0.00245848
0.00245848
0.00245848
0.00245848
0.00245848
0.00245848
0.00245848
0.00245848
0.00245848
0.00245848
0.00245848
0.00245848
0.00245848
0.00245848
0.00245848
0.00245848
0.00245848
0.00245848
0.00245848
0.00245848
0.00245848
0.00245848
0.00245848
0.00245848
0.00245848
0.00245848
0.00245848
0.00245848
0.00245848
0.00245848
0.00245848
0.00245848
0.00245848
0.00245848
0.00245848
0.00245848
0.00245848
0.00245848
0.00245848
0.00245848
0.00245848
0.00245848
0.00245848
0.00245848
0.00245848
0.00245848
0.00245848
0.00245848
0.00245848
0.00245848
0.00245848
0.00245848
0.00245848
0.00245848
0.00245848
0.00245848
0.00245848
0.00245848
0.00245848
0.00245848
0.00245848
0.00245848
0.00245848
0.00245848
0.00245848
0.00245848
0.00245848
0.00245848
0.00245848
0.00245848
0.00245848
0.00245848
0.00245848
0.00245848
0.00245848
0.00245848
0.00245848
0.00245848
0.00245848
0.00245848
0.00245848
0.00245848
0.00245848
0.00245848
0.00245848
0.00245848
0.00245848
0.00245848
0.00245848
0.00245848
0.00245848
0.00245848
0.00245848
0.00245848
0.00245848
0.00245848
0.00245848
0.00245848
0.00245848
0.00245848
0.00245848
0.00245848
0.00245848
0.00245848
0.00245848
0.00245848
0.00245848
0.00245848
0.00245848
0.00245848
0.00245848
0.00245848
0.00245848
0.00245848
0.00245848
0.00245848
0.00245848
0.00245848
0.00245848
0.00245848
0.00245848
0.00245848
0.00245848
0.00245848
0.00245848
0.00245848
0.00245848
0.00245848
0.00245848
0.00245848
0.00245848
0.00245848
0.00245848
0.00245848
0.00245848
0.00245848
0.00245848
0.00245848
0.00245848
0.00245848
0.00245848
0.00245848
0.00245848
0.00245848
0.00245848
0.00245848
0.00245848
0.00245848
0.00245848
0.00245848
0.00245848
0.00245848
0.00245848
0.00245848
0.00245848
0.00245848
0.00245848
0.00245848
0.00245848
0.00245848
0.00245848
0.00245848
0.00245848
0.00245848
0.00245848
0.00245848
0.00245848
0.00245848
0.00245848
0.00245848
0.00245848
0.00245848
0.00245848
0.00245848
0.00245848
0.00245848
0.00245848
0.00245848
0.00245848
0.00245848
0.00245848
0.00245848
0.00245848
0.00245848
0.00245848
0.00245848
0.00245848
0.00245848
0.00245848
0.00245848
0.00245848
0.00245848
0.00245848
0.00245848
0.00245848
0.00245848
0.00245848
0.00245848
0.00245848
0.00245848
0.00245848
0.00245848
0.00245848
0.00245848
0.00245848
0.00245848
0.00245848
0.00245848
0.00245848
0.00245848
0.00245848
0.00245848
0.00245848
0.00245848
0.00245848
0.00245848
0.00245848
0.00245848
0.00245848
0.00245848
0.00245848
0.00245848
0.00245848
0.00245848
0.00245848
0.00245848
0.00245848
0.00245848
0.00245848
0.00245848
0.00245848
0.00245848
0.00245848
0.00245848
0.00245848
0.00245848
0.00245848
0.00245848
0.00245848
0.00245848
0.00245848
0.00245848
0.00245848
0.00245848
0.00245848
0.00245848
0.00245848
0.00245848
0.00245848
0.00245848
0.00245848
0.00245848
0.00245848
0.00245848
0.00245848
0.00245848
0.00245848
0.00245848
0.00245848
0.00245848
0.00245848
0.00245848
0.00245848
0.00245848
0.00245848
0.00245848
0.00245848
0.00245848
0.00245848
0.00245848
0.00245848
0.00245848
0.00245848
0.00245848
0.00245848
0.00245848
0.00245848
0.00245848
0.00245848
0.00245848
0.00245848
0.00245848
0.00245848
0.00245848
0.00245848
0.00245848
0.00245848
0.00245848
0.00245848
0.00245848
0.00245848
0.00245848
0.00245848
0.00245848
0.00245848
0.00245848
0.00245848
0.00245848
0.00245848
0.00245848
0.00245848
0.00245848
0.00245848
0.00245848
0.00245848
0.00245848
0.00245848
0.00245848
0.00245848
0.00245848
0.00245848
0.00245848
0.00245848
0.00245848
0.00245848
0.00245848
0.00245848
0.00245848
0.00245848
0.00245848
0.00245848
0.00245848
0.00245848
0.00245848
0.00245848
0.00245848
0.00245848
0.00245848
0.00245848
0.00245848
0.00245848
0.00245848
0.00245848
0.00245848
0.00245848
0.00245848
0.00245848
0.00245848
0.00245848
0.00245848
0.00245848
0.00245848
0.00245848
0.00245848
0.00245848
0.00245848
0.00245848
0.00245848
0.00245848
0.00245848
0.00245848
0.00245848
0.00245848
0.00245848
0.00245848
0.00245848
0.00245848
0.00245848
0.00245848
0.00245848
0.00245848
0.00245848
0.00245848
0.00245848
0.00245848
0.00245848
0.00245848
0.00245848
0.00245848
0.00245848
0.00245848
0.00245848
0.00245848
0.00245848
0.00245848
0.00245848
0.00245848
0.00245848
0.00245848
0.00245848
0.00245848
0.00245848
0.00245848
0.00245848
0.00245848
0.00245848
0.00245848
0.00245848
0.00245848
0.00245848
0.00245848
0.00245848
0.00245848
0.00245848
0.00245848
0.00245848
0.00245848
0.00245848
0.00245848
0.00245848
0.00245848
0.00245848
0.00245848
0.00245848
0.00245848
0.00245848
0.00245848
0.00245848
0.00245848
0.00245848
0.00245848
0.00245848
0.00245848
0.00245848
0.00245848
0.00245848
0.00245848
0.00245848
0.00245848
0.00245848
0.00245848
0.00245848
0.00245848
0.00245848
0.00245848
0.00245848
0.00245848
0.00245848
0.00245848
0.00245848
0.00245848
0.00245848
0.00245848
0.00245848
0.00245848
0.00245848
0.00245848
0.00245848
0.00245848
0.00245848
0.00245848
0.00245848
0.00245848
0.00245848
0.00245848
0.00245848
0.00245848
0.00245848
0.00245848
0.00245848
0.00245848
0.00245848
0.00245848
0.00245848
0.00245848
0.00245848
0.00245848
0.00245848
0.00245848
0.00245848
0.00245848
0.00245848
0.00245848
0.00245848
0.00245848
0.00245848
0.00245848
0.00245848
0.00245848
0.00245848
0.00245848
0.00245848
0.00245848
0.00245848
0.00245848
0.00245848
0.00245848
0.00245848
0.00245848
0.00245848
0.00245848
0.00245848
0.00245848
0.00245848
0.00245848
0.00245848
0.00245848
0.00245848
0.00245848
0.00245848
0.00245848
0.00245848
0.00245848
0.00245848
0.00245848
0.00245848
0.00245848
0.00245848
0.00245848
0.00245848
0.00245848
0.00245848
0.00245848
0.00245848
0.00245848
0.00245848
0.00245848
0.00245848
0.00245848
0.00245848
0.00245848
0.00245848
0.00245848
0.00245848
0.00245848
0.00245848
0.00245848
0.00245848
0.00245848
0.00245848
0.00245848
0.00245848
0.00245848
0.00245848
0.00245848
0.00245848
0.00245848
0.00245848
0.00245848
0.00245848
0.00245848
0.00245848
0.00245848
0.00245848
0.00245848
0.00245848
0.00245848
0.00245848
0.00245848
0.00245848
0.00245848
0.00245848
0.00245848
0.00245848
0.00245848
0.00245848
0.00245848
0.00245848
0.00245848
0.00245848
0.00245848
0.00245848
0.00245848
0.00245848
0.00245848
0.00245848
0.00245848
0.00245848
0.00245848
0.00245848
0.00245848
0.00245848
0.00245848
0.00245848
0.00245848
0.00245848
0.00245848
0.00245848
0.00245848
0.00245848
0.00245848
0.00245848
0.00245848
0.00245848
0.00245848
0.00245848
0.00245848
0.00245848
0.00245848
0.00245848
0.00245848
0.00245848
0.00245848
0.00245848
0.00245848
0.00245848
0.00245848
0.00245848
0.00245848
0.00245848
0.00245848
0.00245848
0.00245848
0.00245848
0.00245848
0.00245848
0.00245848
0.00245848
0.00245848
0.00245848
0.00245848
0.00245848
0.00245848
0.00245848
0.00245848
0.00245848
0.00245848
0.00245848
0.00245848
0.00245848
0.00245848
0.00245848
0.00245848
0.00245848
0.00245848
0.00245848
0.00245848
0.00245848
0.00245848
0.00245848
0.00245848
0.00245848
0.00245848
0.00245848
0.00245848
0.00245848
0.00245848
0.00245848
0.00245848
0.00245848
0.00245848
0.00245848
0.00245848
0.00245848
0.00245848
0.00245848
0.00245848
0.00245848
0.00245848
0.00245848
0.00245848
0.00245848
0.00245848
0.00245848
0.00245848
0.00245848
0.00245848
0.00245848
0.00245848
0.00245848
0.00245848
0.00245848
0.00245848
0.00245848
0.00245848
0.00245848
0.00245848
0.00245848
0.00245848
0.00245848
0.00245848
0.00245848
0.00245848
0.00245848
0.00245848
0.00245848
0.00245848
0.00245848
0.00245848
0.00245848
0.00245848
0.00245848
0.00245848
0.00245848
0.00245848
0.00245848
0.00245848
0.00245848
0.00245848
0.00245848
0.00245848
0.00245848
0.00245848
0.00245848
0.00245848
0.00245848
0.00245848
0.00245848
0.00245848
0.00245848
0.00245848
0.00245848
0.00245848
0.00245848
0.00245848
0.00245848
0.00245848
0.00245848
0.00245848
0.00245848
0.00245848
0.00245848
0.00245848
0.00245848
0.00245848
0.00245848
0.00245848
0.00245848
0.00245848
0.00245848
0.00245848
0.00245848
0.00245848
0.00245848
0.00245848
0.00245848
0.00245848
0.00245848
0.00245848
0.00245848
0.00245848
0.00245848
0.00245848
0.00245848
0.00245848
0.00245848
0.00245848
0.00245848
0.00245848
0.00245848
0.00245848
0.00245848
0.00245848
0.00245848
0.00245848
0.00245848
0.00245848
0.00245848
0.00245848
0.00245848
0.00245848
0.00245848
0.00245848
0.00245848
0.00245848
0.00245848
0.00245848
0.00245848
0.00245848
0.00245848
0.00245848
0.00245848
0.00245848
0.00245848
0.00245848
0.00245848
0.00245848
0.00245848
0.00245848
0.00245848
0.00245848
0.00245848
0.00245848
0.00245848
0.00245848
0.00245848
0.00245848
0.00245848
0.00245848
0.00245848
0.00245848
0.00245848
0.00245848
0.00245848
0.00245848
0.00245848
0.00245848
0.00245848
0.00245848
0.00245848
0.00245848
0.00245848
0.00245848
0.00245848
0.00245848
0.00245848
0.00245848
0.00245848
0.00245848
0.00245848
0.00245848
0.00245848
0.00245848
0.00245848
0.00245848
0.00245848
0.00245848
0.00245848
0.00245848
0.00245848
0.00245848
0.00245848
0.00245848
0.00245848
0.00245848
0.00245848
0.00245848
0.00245848
0.00245848
0.00245848
0.00245848
0.00245848
0.00245848
0.00245848
0.00245848
0.00245848
0.00245848
0.00245848
0.00245848
0.00245848
0.00245848
0.00245848
0.00245848
0.00245848
0.00245848
0.00245848
0.00245848
0.00245848
0.00245848
0.00245848
0.00245848
0.00245847
0.00245847
0.00245847
0.00245847
0.00245847
0.00245847
0.00245847
0.00245847
0.00245847
0.00245846
0.00245846
0.00245846
0.00245846
0.00245845
0.00245845
0.00245845
0.00245844
0.00245844
0.00245844
0.00245843
0.00245842
0.00245842
0.00245841
0.0024584
0.00245839
0.00245838
0.00245837
0.00245836
0.00245835
0.00245833
0.00245832
0.0024583
0.00245828
0.00245826
0.00245824
0.00245821
0.00245818
0.00245815
0.00245811
0.00245807
0.00245803
0.00245798
0.00245793
0.00245787
0.00245781
0.00245774
0.00245767
0.00245758
0.00245749
0.00245739
0.00245727
0.00245715
0.00245702
0.00245687
0.00245671
0.00245653
0.00245633
0.00245612
0.00245588
0.00245562
0.00245534
0.00245503
0.00245469
0.00245432
0.00245392
0.00245348
0.002453
0.00245247
0.00245189
0.00245126
0.00245058
0.00244983
0.00244901
0.00244812
0.00244715
0.00244609
0.00244494
0.00244369
0.00244233
0.00244085
0.00243924
0.00243749
0.00243559
0.00243353
0.00243129
0.00242887
0.00242623
0.00242338
0.00242029
0.00241694
0.00241332
0.0024094
0.00240517
0.00240059
0.00239564
0.0023903
0.00238454
0.00237833
0.00237163
0.00236442
0.00235666
0.00234831
0.00233933
0.00232968
0.00231932
0.00230821
0.0022963
0.00228354
0.00226988
0.00225527
0.00223966
0.002223
0.00220523
0.00218629
0.00216614
0.00214471
0.00212196
0.00209782
0.00207224
0.00204518
0.00201659
0.00198642
0.00195464
0.0019212
0.00188609
0.00184928
0.00181075
0.00177051
0.00172857
0.00168493
0.00163964
0.00159273
0.00154427
0.00149434
0.00144302
0.00139042
0.00133667
0.00128191
0.0012263
0.00117003
0.00111327
0.00105624
0.000999151
0.000942243
0.000885749
0.000829914
0.000774982
0.000721197
0.000668797
0.000618009
0.000569048
0.00052211
0.000477371
0.000434981
0.000395061
0.000357703
0.000322968
0.000290881
0.000261436
0.000234595
0.00021029
0.000188426
0.000168882
0.000151519
0.000136184
0.000122711
0.000110931
0.000100673
9.17701e-05
8.40614e-05
7.73968e-05
7.16375e-05
6.6658e-05
6.23459e-05
5.86023e-05
5.53409e-05
5.24872e-05
4.99771e-05
4.77561e-05
4.5778e-05
4.40034e-05
4.23993e-05
4.09377e-05
3.95949e-05
3.83512e-05
3.71896e-05
3.6096e-05
3.50584e-05
3.40667e-05
3.31124e-05
3.21883e-05
3.12884e-05
3.04079e-05
2.95428e-05
2.86898e-05
2.78467e-05
2.70115e-05
2.61834e-05
2.53618e-05
2.4547e-05
2.37397e-05
2.29415e-05
2.21542e-05
2.13803e-05
2.0623e-05
1.98858e-05
1.91726e-05
1.84879e-05
1.78362e-05
1.72221e-05
1.66503e-05
1.61253e-05
1.56511e-05
1.52313e-05
1.4869e-05
1.45663e-05
1.43247e-05
1.41449e-05
1.40267e-05
1.39694e-05
1.39713e-05
1.40305e-05
1.41444e-05
1.431e-05
1.45242e-05
1.47836e-05
1.50846e-05
1.54235e-05
1.57966e-05
1.62003e-05
1.66307e-05
1.70844e-05
1.75576e-05
1.80469e-05
1.85488e-05
1.90601e-05
1.95774e-05
2.00975e-05
2.06174e-05
2.11341e-05
2.16447e-05
2.21462e-05
2.2636e-05
2.31111e-05
2.35691e-05
2.40072e-05
2.44229e-05
2.48136e-05
2.51767e-05
2.55098e-05
2.58103e-05
2.60759e-05
2.63039e-05
2.64919e-05
2.66374e-05
2.6738e-05
2.67909e-05
2.67938e-05
2.67439e-05
2.66386e-05
2.64751e-05
2.62508e-05
2.59627e-05
2.56078e-05
2.51832e-05
2.46857e-05
2.41119e-05
2.34586e-05
2.27223e-05
2.18992e-05
2.09856e-05
1.99778e-05
1.8872e-05
1.76648e-05
1.6353e-05
1.49347e-05
1.34101e-05
1.1783e-05
1.00642e-05
8.27667e-06
6.46459e-06
4.70561e-06
3.12042e-06
1.85677e-06
1.01935e-06
5.86383e-07
)
;

boundaryField
{
    top_wall
    {
        type            nutLowReWallFunction;
        value           uniform 0;
    }
    inlet
    {
        type            cyclic;
    }
    bot_wall
    {
        type            nutLowReWallFunction;
        value           uniform 0;
    }
    outlet
    {
        type            cyclic;
    }
    frontAndBack
    {
        type            empty;
    }
}


// ************************************************************************* //
