/*--------------------------------*- C++ -*----------------------------------*\
| =========                 |                                                 |
| \\      /  F ield         | OpenFOAM: The Open Source CFD Toolbox           |
|  \\    /   O peration     | Version:  2312                                  |
|   \\  /    A nd           | Website:  www.openfoam.com                      |
|    \\/     M anipulation  |                                                 |
\*---------------------------------------------------------------------------*/
FoamFile
{
    version     2.0;
    format      ascii;
    arch        "LSB;label=32;scalar=64";
    class       volScalarField;
    location    "25.045";
    object      k;
}
// * * * * * * * * * * * * * * * * * * * * * * * * * * * * * * * * * * * * * //

dimensions      [0 2 -2 0 0 0 0];

internalField   nonuniform List<scalar> 
2000
(
1.84705e-05
1.28411e-05
7.08037e-05
0.000245368
0.000593937
0.00112544
0.00177735
0.00245524
0.00308858
0.00364614
0.00412364
0.00452979
0.00487426
0.00516619
0.00541401
0.00562508
0.00580561
0.00596074
0.00609469
0.0062109
0.00631219
0.00640088
0.00647885
0.00654769
0.00660871
0.00666299
0.00671144
0.0067548
0.00679365
0.00682846
0.00685968
0.00688766
0.00691273
0.00693517
0.00695522
0.0069731
0.00698901
0.0070031
0.00701554
0.00702645
0.00703596
0.00704418
0.00705119
0.00705709
0.00706196
0.00706587
0.00706889
0.00707107
0.00707247
0.00707313
0.00707311
0.00707244
0.00707117
0.00706933
0.00706694
0.00706405
0.00706068
0.00705685
0.00705259
0.00704793
0.00704287
0.00703745
0.00703168
0.00702557
0.00701915
0.00701243
0.00700541
0.00699813
0.00699058
0.00698278
0.00697474
0.00696647
0.00695798
0.00694928
0.00694038
0.00693128
0.006922
0.00691255
0.00690292
0.00689313
0.00688318
0.00687308
0.00686284
0.00685246
0.00684194
0.0068313
0.00682053
0.00680965
0.00679865
0.00678754
0.00677632
0.006765
0.00675359
0.00674208
0.00673048
0.0067188
0.00670703
0.00669517
0.00668324
0.00667121
0.0066591
0.0066469
0.00663461
0.00662224
0.00660978
0.00659723
0.0065846
0.00657188
0.00655908
0.0065462
0.00653324
0.00652019
0.00650707
0.00649387
0.00648059
0.00646724
0.00645381
0.0064403
0.00642672
0.00641307
0.00639935
0.00638556
0.0063717
0.00635777
0.00634377
0.00632971
0.00631558
0.00630139
0.00628713
0.00627282
0.00625844
0.006244
0.0062295
0.00621494
0.00620032
0.00618565
0.00617092
0.00615614
0.0061413
0.00612641
0.00611147
0.00609648
0.00608143
0.00606634
0.0060512
0.00603601
0.00602078
0.0060055
0.00599017
0.00597481
0.0059594
0.00594394
0.00592845
0.00591292
0.00589735
0.00588175
0.00586611
0.00585043
0.00583473
0.00581899
0.00580322
0.00578743
0.00577161
0.00575576
0.00573989
0.00572401
0.0057081
0.00569218
0.00567625
0.0056603
0.00564435
0.0056284
0.00561244
0.00559649
0.00558055
0.00556462
0.0055487
0.00553281
0.00551694
0.00550111
0.00548531
0.00546955
0.00545385
0.0054382
0.00542261
0.00540709
0.00539164
0.00537627
0.00536099
0.00534579
0.00533068
0.00531566
0.00530072
0.00528588
0.00527111
0.0052564
0.00524174
0.00522712
0.00521254
0.005198
0.0051835
0.00516903
0.0051546
0.00514022
0.00512587
0.00511156
0.00509729
0.00508306
0.00506887
0.00505471
0.0050406
0.00502653
0.0050125
0.00499851
0.00498456
0.00497065
0.00495678
0.00494295
0.00492916
0.00491542
0.00490171
0.00488805
0.00487443
0.00486085
0.00484731
0.00483381
0.00482036
0.00480695
0.00479358
0.00478025
0.00476697
0.00475372
0.00474053
0.00472737
0.00471426
0.00470119
0.00468817
0.00467519
0.00466225
0.00464936
0.00463651
0.0046237
0.00461094
0.00459823
0.00458555
0.00457293
0.00456034
0.0045478
0.00453531
0.00452286
0.00451046
0.0044981
0.00448579
0.00447352
0.0044613
0.00444912
0.00443699
0.00442491
0.00441287
0.00440088
0.00438893
0.00437703
0.00436517
0.00435336
0.0043416
0.00432988
0.00431821
0.00430659
0.00429501
0.00428348
0.00427199
0.00426055
0.00424916
0.00423782
0.00422652
0.00421527
0.00420406
0.0041929
0.00418179
0.00417073
0.00415971
0.00414874
0.00413781
0.00412693
0.0041161
0.00410532
0.00409458
0.00408389
0.00407325
0.00406265
0.0040521
0.0040416
0.00403114
0.00402073
0.00401037
0.00400006
0.00398979
0.00397956
0.00396939
0.00395926
0.00394918
0.00393914
0.00392916
0.00391921
0.00390932
0.00389947
0.00388967
0.00387991
0.0038702
0.00386054
0.00385093
0.00384136
0.00383183
0.00382235
0.00381292
0.00380354
0.0037942
0.0037849
0.00377566
0.00376646
0.0037573
0.00374819
0.00373913
0.00373011
0.00372113
0.00371221
0.00370332
0.00369449
0.0036857
0.00367695
0.00366825
0.00365959
0.00365098
0.00364241
0.00363389
0.00362541
0.00361698
0.00360859
0.00360025
0.00359195
0.00358369
0.00357548
0.00356732
0.00355919
0.00355111
0.00354308
0.00353509
0.00352714
0.00351923
0.00351137
0.00350356
0.00349578
0.00348805
0.00348036
0.00347271
0.00346511
0.00345755
0.00345003
0.00344255
0.00343512
0.00342773
0.00342038
0.00341307
0.00340581
0.00339858
0.0033914
0.00338426
0.00337716
0.0033701
0.00336308
0.00335611
0.00334917
0.00334228
0.00333542
0.00332861
0.00332184
0.0033151
0.00330841
0.00330176
0.00329515
0.00328857
0.00328204
0.00327555
0.00326909
0.00326268
0.0032563
0.00324996
0.00324367
0.00323741
0.00323119
0.003225
0.00321886
0.00321275
0.00320669
0.00320066
0.00319467
0.00318871
0.00318279
0.00317691
0.00317107
0.00316527
0.0031595
0.00315377
0.00314808
0.00314242
0.0031368
0.00313121
0.00312566
0.00312015
0.00311467
0.00310923
0.00310383
0.00309846
0.00309313
0.00308783
0.00308256
0.00307733
0.00307214
0.00306698
0.00306186
0.00305677
0.00305171
0.00304669
0.0030417
0.00303675
0.00303183
0.00302694
0.00302209
0.00301727
0.00301248
0.00300772
0.003003
0.00299832
0.00299366
0.00298904
0.00298445
0.00297989
0.00297536
0.00297087
0.0029664
0.00296197
0.00295757
0.00295321
0.00294887
0.00294456
0.00294029
0.00293604
0.00293183
0.00292765
0.00292349
0.00291937
0.00291528
0.00291122
0.00290718
0.00290318
0.00289921
0.00289526
0.00289135
0.00288746
0.00288361
0.00287978
0.00287598
0.00287221
0.00286847
0.00286476
0.00286107
0.00285741
0.00285379
0.00285018
0.00284661
0.00284306
0.00283955
0.00283605
0.00283259
0.00282915
0.00282574
0.00282236
0.002819
0.00281567
0.00281236
0.00280908
0.00280583
0.00280261
0.0027994
0.00279623
0.00279308
0.00278996
0.00278686
0.00278378
0.00278073
0.00277771
0.00277471
0.00277173
0.00276878
0.00276586
0.00276296
0.00276008
0.00275722
0.00275439
0.00275159
0.0027488
0.00274604
0.00274331
0.00274059
0.0027379
0.00273524
0.00273259
0.00272997
0.00272737
0.00272479
0.00272224
0.00271971
0.0027172
0.00271471
0.00271224
0.0027098
0.00270737
0.00270497
0.00270259
0.00270023
0.00269789
0.00269557
0.00269328
0.002691
0.00268875
0.00268651
0.0026843
0.0026821
0.00267993
0.00267777
0.00267564
0.00267352
0.00267142
0.00266935
0.00266729
0.00266525
0.00266324
0.00266124
0.00265926
0.00265729
0.00265535
0.00265343
0.00265152
0.00264963
0.00264776
0.00264591
0.00264408
0.00264226
0.00264046
0.00263868
0.00263692
0.00263517
0.00263344
0.00263173
0.00263004
0.00262836
0.0026267
0.00262506
0.00262343
0.00262182
0.00262022
0.00261865
0.00261708
0.00261554
0.00261401
0.00261249
0.00261099
0.00260951
0.00260804
0.00260659
0.00260516
0.00260373
0.00260233
0.00260094
0.00259956
0.0025982
0.00259685
0.00259552
0.0025942
0.00259289
0.0025916
0.00259033
0.00258907
0.00258782
0.00258659
0.00258536
0.00258416
0.00258296
0.00258178
0.00258062
0.00257946
0.00257832
0.0025772
0.00257608
0.00257498
0.00257389
0.00257281
0.00257175
0.0025707
0.00256966
0.00256863
0.00256761
0.00256661
0.00256562
0.00256464
0.00256367
0.00256271
0.00256177
0.00256084
0.00255991
0.002559
0.0025581
0.00255721
0.00255633
0.00255547
0.00255461
0.00255376
0.00255293
0.0025521
0.00255129
0.00255048
0.00254969
0.0025489
0.00254813
0.00254736
0.00254661
0.00254586
0.00254513
0.0025444
0.00254368
0.00254298
0.00254228
0.00254159
0.00254091
0.00254024
0.00253958
0.00253892
0.00253828
0.00253764
0.00253702
0.0025364
0.00253579
0.00253518
0.00253459
0.002534
0.00253343
0.00253286
0.00253229
0.00253174
0.00253119
0.00253066
0.00253012
0.0025296
0.00252908
0.00252858
0.00252807
0.00252758
0.00252709
0.00252661
0.00252614
0.00252567
0.00252521
0.00252476
0.00252431
0.00252387
0.00252344
0.00252301
0.00252259
0.00252218
0.00252177
0.00252137
0.00252098
0.00252059
0.0025202
0.00251983
0.00251945
0.00251909
0.00251873
0.00251837
0.00251802
0.00251768
0.00251734
0.00251701
0.00251668
0.00251636
0.00251604
0.00251573
0.00251543
0.00251512
0.00251483
0.00251454
0.00251425
0.00251397
0.00251369
0.00251342
0.00251315
0.00251288
0.00251262
0.00251237
0.00251212
0.00251187
0.00251163
0.00251139
0.00251116
0.00251093
0.00251071
0.00251049
0.00251027
0.00251006
0.00250985
0.00250964
0.00250944
0.00250924
0.00250905
0.00250886
0.00250867
0.00250849
0.00250831
0.00250813
0.00250796
0.00250779
0.00250762
0.00250746
0.00250729
0.00250714
0.00250698
0.00250683
0.00250669
0.00250654
0.0025064
0.00250626
0.00250612
0.00250599
0.00250586
0.00250573
0.00250561
0.00250549
0.00250537
0.00250525
0.00250514
0.00250502
0.00250491
0.00250481
0.0025047
0.0025046
0.0025045
0.0025044
0.00250431
0.00250422
0.00250413
0.00250404
0.00250395
0.00250387
0.00250379
0.00250371
0.00250363
0.00250355
0.00250348
0.00250341
0.00250334
0.00250327
0.0025032
0.00250314
0.00250308
0.00250302
0.00250296
0.0025029
0.00250285
0.00250279
0.00250274
0.00250269
0.00250264
0.00250259
0.00250255
0.0025025
0.00250246
0.00250242
0.00250238
0.00250234
0.0025023
0.00250227
0.00250223
0.0025022
0.00250217
0.00250214
0.00250211
0.00250208
0.00250206
0.00250203
0.00250201
0.00250198
0.00250196
0.00250194
0.00250192
0.0025019
0.00250188
0.00250187
0.00250185
0.00250184
0.00250182
0.00250181
0.0025018
0.00250179
0.00250178
0.00250177
0.00250176
0.00250176
0.00250175
0.00250174
0.00250174
0.00250174
0.00250173
0.00250173
0.00250173
0.00250173
0.00250173
0.00250173
0.00250173
0.00250173
0.00250174
0.00250174
0.00250175
0.00250175
0.00250176
0.00250176
0.00250177
0.00250178
0.00250178
0.00250179
0.0025018
0.00250181
0.00250182
0.00250183
0.00250184
0.00250185
0.00250187
0.00250188
0.00250189
0.0025019
0.00250192
0.00250193
0.00250195
0.00250196
0.00250198
0.00250199
0.00250201
0.00250202
0.00250204
0.00250206
0.00250208
0.00250209
0.00250211
0.00250213
0.00250215
0.00250217
0.00250219
0.00250221
0.00250223
0.00250225
0.00250227
0.00250229
0.00250231
0.00250233
0.00250235
0.00250237
0.00250239
0.00250241
0.00250243
0.00250246
0.00250248
0.0025025
0.00250252
0.00250255
0.00250257
0.00250259
0.00250261
0.00250264
0.00250266
0.00250268
0.00250271
0.00250273
0.00250275
0.00250278
0.0025028
0.00250282
0.00250285
0.00250287
0.0025029
0.00250292
0.00250294
0.00250297
0.00250299
0.00250301
0.00250304
0.00250306
0.00250309
0.00250311
0.00250313
0.00250316
0.00250318
0.00250321
0.00250323
0.00250325
0.00250328
0.0025033
0.00250332
0.00250335
0.00250337
0.00250339
0.00250342
0.00250344
0.00250346
0.00250349
0.00250351
0.00250353
0.00250356
0.00250358
0.0025036
0.00250362
0.00250365
0.00250367
0.00250369
0.00250371
0.00250373
0.00250375
0.00250378
0.0025038
0.00250382
0.00250384
0.00250386
0.00250388
0.0025039
0.00250392
0.00250394
0.00250396
0.00250398
0.002504
0.00250402
0.00250404
0.00250406
0.00250408
0.0025041
0.00250412
0.00250413
0.00250415
0.00250417
0.00250419
0.0025042
0.00250422
0.00250424
0.00250425
0.00250427
0.00250429
0.0025043
0.00250432
0.00250433
0.00250435
0.00250436
0.00250438
0.00250439
0.00250441
0.00250442
0.00250443
0.00250445
0.00250446
0.00250447
0.00250448
0.0025045
0.00250451
0.00250452
0.00250453
0.00250454
0.00250455
0.00250456
0.00250457
0.00250458
0.00250459
0.0025046
0.00250461
0.00250462
0.00250462
0.00250463
0.00250464
0.00250464
0.00250465
0.00250466
0.00250466
0.00250467
0.00250467
0.00250468
0.00250468
0.00250468
0.00250469
0.00250469
0.00250469
0.00250469
0.0025047
0.0025047
0.0025047
0.0025047
0.0025047
0.0025047
0.0025047
0.0025047
0.0025047
0.00250469
0.00250469
0.00250469
0.00250468
0.00250468
0.00250468
0.00250467
0.00250467
0.00250466
0.00250466
0.00250465
0.00250464
0.00250464
0.00250463
0.00250462
0.00250462
0.00250461
0.0025046
0.00250459
0.00250458
0.00250457
0.00250456
0.00250455
0.00250454
0.00250453
0.00250452
0.00250451
0.0025045
0.00250449
0.00250447
0.00250446
0.00250445
0.00250443
0.00250442
0.00250441
0.00250439
0.00250438
0.00250437
0.00250435
0.00250434
0.00250432
0.0025043
0.00250429
0.00250427
0.00250426
0.00250424
0.00250422
0.00250421
0.00250419
0.00250417
0.00250415
0.00250414
0.00250412
0.0025041
0.00250408
0.00250406
0.00250404
0.00250402
0.002504
0.00250398
0.00250396
0.00250394
0.00250392
0.0025039
0.00250388
0.00250386
0.00250384
0.00250382
0.0025038
0.00250378
0.00250376
0.00250374
0.00250371
0.00250369
0.00250367
0.00250365
0.00250363
0.0025036
0.00250358
0.00250356
0.00250354
0.00250351
0.00250349
0.00250347
0.00250344
0.00250342
0.0025034
0.00250337
0.00250335
0.00250333
0.0025033
0.00250328
0.00250326
0.00250323
0.00250321
0.00250318
0.00250316
0.00250314
0.00250311
0.00250309
0.00250307
0.00250304
0.00250302
0.00250299
0.00250297
0.00250295
0.00250292
0.0025029
0.00250287
0.00250285
0.00250283
0.0025028
0.00250278
0.00250276
0.00250273
0.00250271
0.00250269
0.00250266
0.00250264
0.00250262
0.00250259
0.00250257
0.00250255
0.00250253
0.0025025
0.00250248
0.00250246
0.00250244
0.00250242
0.00250239
0.00250237
0.00250235
0.00250233
0.00250231
0.00250229
0.00250227
0.00250225
0.00250223
0.00250221
0.00250219
0.00250217
0.00250215
0.00250213
0.00250211
0.0025021
0.00250208
0.00250206
0.00250204
0.00250203
0.00250201
0.002502
0.00250198
0.00250196
0.00250195
0.00250194
0.00250192
0.00250191
0.00250189
0.00250188
0.00250187
0.00250186
0.00250185
0.00250183
0.00250182
0.00250181
0.0025018
0.0025018
0.00250179
0.00250178
0.00250177
0.00250177
0.00250176
0.00250175
0.00250175
0.00250175
0.00250174
0.00250174
0.00250174
0.00250174
0.00250173
0.00250173
0.00250173
0.00250174
0.00250174
0.00250174
0.00250174
0.00250175
0.00250175
0.00250176
0.00250177
0.00250178
0.00250178
0.00250179
0.0025018
0.00250182
0.00250183
0.00250184
0.00250186
0.00250187
0.00250189
0.00250191
0.00250192
0.00250194
0.00250196
0.00250199
0.00250201
0.00250203
0.00250206
0.00250209
0.00250211
0.00250214
0.00250217
0.0025022
0.00250224
0.00250227
0.00250231
0.00250234
0.00250238
0.00250242
0.00250246
0.00250251
0.00250255
0.0025026
0.00250264
0.00250269
0.00250274
0.0025028
0.00250285
0.00250291
0.00250296
0.00250302
0.00250308
0.00250314
0.00250321
0.00250327
0.00250334
0.00250341
0.00250348
0.00250356
0.00250363
0.00250371
0.00250379
0.00250387
0.00250396
0.00250404
0.00250413
0.00250422
0.00250431
0.00250441
0.00250451
0.00250461
0.00250471
0.00250481
0.00250492
0.00250503
0.00250514
0.00250525
0.00250537
0.00250549
0.00250561
0.00250574
0.00250587
0.002506
0.00250613
0.00250627
0.0025064
0.00250655
0.00250669
0.00250684
0.00250699
0.00250714
0.0025073
0.00250746
0.00250762
0.00250779
0.00250796
0.00250813
0.00250831
0.00250849
0.00250867
0.00250886
0.00250905
0.00250925
0.00250944
0.00250965
0.00250985
0.00251006
0.00251027
0.00251049
0.00251071
0.00251094
0.00251117
0.0025114
0.00251164
0.00251188
0.00251213
0.00251238
0.00251263
0.00251289
0.00251315
0.00251342
0.00251369
0.00251397
0.00251425
0.00251454
0.00251483
0.00251513
0.00251543
0.00251574
0.00251605
0.00251637
0.00251669
0.00251702
0.00251735
0.00251769
0.00251803
0.00251838
0.00251873
0.00251909
0.00251946
0.00251983
0.00252021
0.00252059
0.00252098
0.00252138
0.00252178
0.00252219
0.0025226
0.00252302
0.00252345
0.00252388
0.00252432
0.00252477
0.00252522
0.00252568
0.00252614
0.00252662
0.0025271
0.00252759
0.00252808
0.00252858
0.00252909
0.00252961
0.00253013
0.00253066
0.0025312
0.00253175
0.0025323
0.00253286
0.00253343
0.00253401
0.0025346
0.00253519
0.00253579
0.0025364
0.00253702
0.00253765
0.00253829
0.00253893
0.00253958
0.00254025
0.00254092
0.0025416
0.00254229
0.00254298
0.00254369
0.00254441
0.00254513
0.00254587
0.00254661
0.00254737
0.00254813
0.00254891
0.00254969
0.00255049
0.00255129
0.00255211
0.00255293
0.00255377
0.00255462
0.00255547
0.00255634
0.00255722
0.00255811
0.00255901
0.00255992
0.00256084
0.00256178
0.00256272
0.00256368
0.00256465
0.00256563
0.00256662
0.00256762
0.00256864
0.00256966
0.0025707
0.00257176
0.00257282
0.0025739
0.00257499
0.00257609
0.0025772
0.00257833
0.00257947
0.00258062
0.00258179
0.00258297
0.00258416
0.00258537
0.00258659
0.00258783
0.00258907
0.00259034
0.00259161
0.0025929
0.0025942
0.00259552
0.00259686
0.0025982
0.00259957
0.00260094
0.00260233
0.00260374
0.00260516
0.0026066
0.00260805
0.00260952
0.002611
0.0026125
0.00261401
0.00261554
0.00261709
0.00261865
0.00262023
0.00262182
0.00262344
0.00262506
0.00262671
0.00262837
0.00263004
0.00263174
0.00263345
0.00263518
0.00263692
0.00263869
0.00264047
0.00264227
0.00264408
0.00264592
0.00264777
0.00264964
0.00265153
0.00265343
0.00265536
0.0026573
0.00265926
0.00266124
0.00266324
0.00266526
0.0026673
0.00266935
0.00267143
0.00267353
0.00267564
0.00267778
0.00267993
0.00268211
0.0026843
0.00268652
0.00268875
0.00269101
0.00269328
0.00269558
0.0026979
0.00270024
0.0027026
0.00270498
0.00270738
0.0027098
0.00271225
0.00271472
0.0027172
0.00271971
0.00272225
0.0027248
0.00272738
0.00272998
0.0027326
0.00273524
0.00273791
0.0027406
0.00274331
0.00274605
0.00274881
0.00275159
0.0027544
0.00275723
0.00276008
0.00276296
0.00276586
0.00276879
0.00277174
0.00277472
0.00277771
0.00278074
0.00278379
0.00278686
0.00278996
0.00279309
0.00279624
0.00279941
0.00280261
0.00280584
0.00280909
0.00281237
0.00281567
0.00281901
0.00282236
0.00282575
0.00282916
0.00283259
0.00283606
0.00283955
0.00284307
0.00284662
0.00285019
0.00285379
0.00285742
0.00286108
0.00286476
0.00286848
0.00287222
0.00287599
0.00287979
0.00288361
0.00288747
0.00289136
0.00289527
0.00289921
0.00290319
0.00290719
0.00291122
0.00291528
0.00291938
0.0029235
0.00292765
0.00293183
0.00293605
0.00294029
0.00294457
0.00294887
0.00295321
0.00295758
0.00296198
0.00296641
0.00297087
0.00297537
0.00297989
0.00298445
0.00298904
0.00299367
0.00299832
0.00300301
0.00300773
0.00301248
0.00301727
0.00302209
0.00302694
0.00303183
0.00303675
0.00304171
0.00304669
0.00305171
0.00305677
0.00306186
0.00306699
0.00307215
0.00307734
0.00308257
0.00308783
0.00309313
0.00309846
0.00310383
0.00310924
0.00311468
0.00312016
0.00312567
0.00313122
0.0031368
0.00314242
0.00314808
0.00315377
0.00315951
0.00316527
0.00317108
0.00317692
0.0031828
0.00318872
0.00319467
0.00320066
0.00320669
0.00321276
0.00321886
0.00322501
0.00323119
0.00323741
0.00324367
0.00324997
0.00325631
0.00326268
0.0032691
0.00327555
0.00328205
0.00328858
0.00329515
0.00330176
0.00330842
0.00331511
0.00332184
0.00332862
0.00333543
0.00334228
0.00334918
0.00335611
0.00336309
0.00337011
0.00337716
0.00338426
0.0033914
0.00339859
0.00340581
0.00341308
0.00342038
0.00342773
0.00343512
0.00344256
0.00345003
0.00345755
0.00346511
0.00347272
0.00348036
0.00348805
0.00349578
0.00350356
0.00351138
0.00351924
0.00352714
0.00353509
0.00354308
0.00355112
0.0035592
0.00356732
0.00357549
0.0035837
0.00359195
0.00360025
0.0036086
0.00361699
0.00362542
0.0036339
0.00364242
0.00365098
0.0036596
0.00366825
0.00367695
0.0036857
0.00369449
0.00370333
0.00371221
0.00372114
0.00373011
0.00373913
0.00374819
0.0037573
0.00376646
0.00377566
0.00378491
0.0037942
0.00380354
0.00381293
0.00382236
0.00383183
0.00384136
0.00385093
0.00386054
0.00387021
0.00387992
0.00388967
0.00389947
0.00390932
0.00391922
0.00392916
0.00393915
0.00394918
0.00395926
0.00396939
0.00397957
0.00398979
0.00400006
0.00401037
0.00402074
0.00403115
0.0040416
0.0040521
0.00406265
0.00407325
0.00408389
0.00409458
0.00410532
0.00411611
0.00412694
0.00413781
0.00414874
0.00415971
0.00417073
0.00418179
0.00419291
0.00420406
0.00421527
0.00422652
0.00423782
0.00424917
0.00426056
0.004272
0.00428348
0.00429501
0.00430659
0.00431821
0.00432989
0.0043416
0.00435337
0.00436517
0.00437703
0.00438893
0.00440088
0.00441287
0.00442491
0.004437
0.00444913
0.0044613
0.00447353
0.00448579
0.00449811
0.00451046
0.00452287
0.00453531
0.00454781
0.00456035
0.00457293
0.00458556
0.00459823
0.00461094
0.0046237
0.00463651
0.00464936
0.00466225
0.00467519
0.00468817
0.00470119
0.00471426
0.00472737
0.00474053
0.00475373
0.00476697
0.00478025
0.00479358
0.00480695
0.00482036
0.00483381
0.00484731
0.00486085
0.00487443
0.00488805
0.00490171
0.00491542
0.00492916
0.00494295
0.00495678
0.00497065
0.00498456
0.00499851
0.0050125
0.00502653
0.0050406
0.00505472
0.00506887
0.00508306
0.00509729
0.00511156
0.00512587
0.00514022
0.00515461
0.00516903
0.0051835
0.005198
0.00521254
0.00522713
0.00524174
0.0052564
0.00527111
0.00528588
0.00530073
0.00531566
0.00533068
0.00534579
0.00536099
0.00537627
0.00539164
0.00540709
0.00542261
0.0054382
0.00545385
0.00546955
0.00548531
0.00550111
0.00551694
0.00553281
0.0055487
0.00556462
0.00558055
0.00559649
0.00561244
0.0056284
0.00564435
0.0056603
0.00567625
0.00569218
0.0057081
0.00572401
0.00573989
0.00575576
0.00577161
0.00578743
0.00580322
0.00581899
0.00583473
0.00585043
0.00586611
0.00588175
0.00589735
0.00591292
0.00592845
0.00594394
0.00595939
0.00597481
0.00599017
0.0060055
0.00602078
0.00603601
0.0060512
0.00606634
0.00608143
0.00609648
0.00611147
0.00612641
0.0061413
0.00615614
0.00617092
0.00618565
0.00620032
0.00621494
0.0062295
0.006244
0.00625844
0.00627282
0.00628713
0.00630139
0.00631558
0.00632971
0.00634377
0.00635777
0.0063717
0.00638556
0.00639935
0.00641307
0.00642672
0.0064403
0.00645381
0.00646724
0.00648059
0.00649387
0.00650707
0.0065202
0.00653324
0.0065462
0.00655908
0.00657188
0.0065846
0.00659723
0.00660978
0.00662224
0.00663461
0.0066469
0.0066591
0.00667121
0.00668324
0.00669517
0.00670703
0.0067188
0.00673048
0.00674208
0.00675359
0.006765
0.00677632
0.00678754
0.00679865
0.00680965
0.00682053
0.0068313
0.00684194
0.00685246
0.00686284
0.00687308
0.00688318
0.00689313
0.00690292
0.00691255
0.006922
0.00693128
0.00694038
0.00694928
0.00695798
0.00696647
0.00697474
0.00698278
0.00699058
0.00699813
0.00700541
0.00701243
0.00701915
0.00702557
0.00703168
0.00703745
0.00704287
0.00704793
0.00705259
0.00705685
0.00706068
0.00706405
0.00706694
0.00706933
0.00707117
0.00707244
0.00707311
0.00707313
0.00707247
0.00707107
0.00706889
0.00706588
0.00706197
0.00705709
0.00705119
0.00704418
0.00703596
0.00702646
0.00701554
0.00700311
0.00698901
0.00697311
0.00695522
0.00693517
0.00691273
0.00688766
0.00685968
0.00682846
0.00679365
0.0067548
0.00671144
0.00666299
0.00660871
0.00654769
0.00647885
0.00640088
0.00631219
0.0062109
0.00609469
0.00596074
0.00580561
0.00562508
0.00541401
0.00516619
0.00487426
0.0045298
0.00412364
0.00364614
0.00308858
0.00245524
0.00177735
0.00112544
0.000593937
0.000245368
7.08037e-05
1.28411e-05
1.84705e-05
)
;

boundaryField
{
    top_wall
    {
        type            kLowReWallFunction;
        value           uniform 4.17113e-10;
    }
    inlet
    {
        type            cyclic;
    }
    bot_wall
    {
        type            kLowReWallFunction;
        value           uniform 4.17113e-10;
    }
    outlet
    {
        type            cyclic;
    }
    frontAndBack
    {
        type            empty;
    }
}


// ************************************************************************* //
