/*--------------------------------*- C++ -*----------------------------------*\
| =========                 |                                                 |
| \\      /  F ield         | OpenFOAM: The Open Source CFD Toolbox           |
|  \\    /   O peration     | Version:  2312                                  |
|   \\  /    A nd           | Website:  www.openfoam.com                      |
|    \\/     M anipulation  |                                                 |
\*---------------------------------------------------------------------------*/
FoamFile
{
    version     2.0;
    format      ascii;
    arch        "LSB;label=32;scalar=64";
    class       volScalarField;
    location    "25.045";
    object      nut;
}
// * * * * * * * * * * * * * * * * * * * * * * * * * * * * * * * * * * * * * //

dimensions      [0 2 -1 0 0 0 0];

internalField   nonuniform List<scalar> 
2000
(
1.15441e-09
4.64741e-09
7.44827e-08
5.25544e-07
2.08888e-06
5.65413e-06
1.16791e-05
1.99873e-05
3.00898e-05
4.15034e-05
5.33425e-05
6.57442e-05
7.88556e-05
9.26196e-05
0.000106951
0.000121767
0.000136992
0.000152571
0.000168451
0.00018459
0.000200951
0.000217501
0.000234208
0.000251026
0.000267869
0.000284552
0.000300872
0.00031721
0.000333558
0.000349906
0.000366249
0.000382581
0.000398895
0.000415186
0.000431451
0.000447685
0.000463885
0.000480047
0.000496169
0.000512247
0.00052828
0.000544264
0.000560199
0.000576081
0.00059191
0.000607684
0.000623401
0.00063906
0.00065466
0.0006702
0.000685679
0.000701096
0.000716449
0.000731739
0.000746964
0.000762124
0.000777218
0.000792247
0.000807208
0.000822102
0.000836928
0.000851687
0.000866377
0.000880998
0.00089555
0.000910033
0.000924447
0.000938791
0.000953065
0.000967269
0.000981402
0.000995466
0.00100946
0.00102338
0.00103723
0.00105101
0.00106473
0.00107836
0.00109193
0.00110543
0.00111886
0.00113222
0.0011455
0.00115871
0.00117186
0.00118493
0.00119793
0.00121086
0.00122372
0.00123651
0.00124923
0.00126188
0.00127446
0.00128696
0.0012994
0.00131177
0.00132398
0.00133555
0.00134669
0.00135754
0.00136818
0.00137867
0.00138905
0.00139935
0.00140958
0.00141975
0.00142986
0.00143993
0.00144994
0.0014599
0.00146981
0.00147967
0.00148948
0.00149923
0.00150893
0.00151858
0.00152817
0.0015377
0.00154718
0.0015566
0.00156597
0.00157527
0.00158452
0.00159371
0.00160284
0.00161192
0.00162094
0.00162989
0.0016388
0.00164764
0.00165643
0.00166516
0.00167383
0.00168245
0.00169102
0.00169953
0.00170799
0.0017164
0.00172475
0.00173306
0.00174131
0.00174952
0.00175768
0.0017658
0.00177388
0.00178191
0.00178991
0.00179787
0.00180579
0.00181369
0.00182155
0.0018294
0.00183722
0.00184503
0.00185282
0.00186062
0.00186841
0.0018762
0.00188402
0.00189185
0.00189972
0.00190763
0.00191559
0.00192362
0.00193173
0.00193993
0.00194824
0.00195668
0.00196527
0.00197403
0.00198299
0.00199216
0.00200159
0.00201129
0.0020213
0.00203165
0.00204237
0.00205351
0.00206509
0.00207715
0.00208972
0.00210284
0.00211652
0.00213078
0.00214562
0.00216104
0.002177
0.00219345
0.00221028
0.00222736
0.00224449
0.00226138
0.00227768
0.00229294
0.00230657
0.00231786
0.00232575
0.00233355
0.00234131
0.00234903
0.00235671
0.00236435
0.00237194
0.0023795
0.00238702
0.0023945
0.00240194
0.00240934
0.0024167
0.00242402
0.0024313
0.00243854
0.00244575
0.00245291
0.00246003
0.00246712
0.00247416
0.00248117
0.00248813
0.00249506
0.00250195
0.0025088
0.00251561
0.00252238
0.00252911
0.0025358
0.00254246
0.00254907
0.00255565
0.00256219
0.00256868
0.00257514
0.00258157
0.00258795
0.00259429
0.0026006
0.00260686
0.00261309
0.00261928
0.00262543
0.00263154
0.00263761
0.00264365
0.00264964
0.0026556
0.00266152
0.0026674
0.00267324
0.00267904
0.00268481
0.00269053
0.00269622
0.00270187
0.00270748
0.00271305
0.00271859
0.00272408
0.00272954
0.00273496
0.00274034
0.00274568
0.00275099
0.00275625
0.00276148
0.00276667
0.00277182
0.00277693
0.002782
0.00278704
0.00279204
0.002797
0.00280192
0.0028068
0.00281165
0.00281646
0.00282123
0.00282596
0.00283065
0.00283531
0.00283992
0.0028445
0.00284905
0.00285355
0.00285802
0.00286244
0.00286684
0.00287119
0.0028755
0.00287978
0.00288402
0.00288822
0.00289239
0.00289651
0.0029006
0.00290466
0.00290867
0.00291265
0.00291659
0.00292049
0.00292436
0.00292819
0.00293198
0.00293573
0.00293945
0.00294313
0.00294677
0.00295038
0.00295395
0.00295748
0.00296098
0.00296444
0.00296787
0.00297125
0.0029746
0.00297792
0.0029812
0.00298444
0.00298765
0.00299082
0.00299395
0.00299705
0.00300011
0.00300314
0.00300613
0.00300909
0.00301201
0.00301489
0.00301774
0.00302056
0.00302334
0.00302608
0.00302879
0.00303147
0.00303411
0.00303671
0.00303929
0.00304182
0.00304433
0.0030468
0.00304923
0.00305163
0.003054
0.00305633
0.00305863
0.0030609
0.00306313
0.00306533
0.0030675
0.00306964
0.00307174
0.00307381
0.00307585
0.00307785
0.00307982
0.00308176
0.00308367
0.00308555
0.00308739
0.0030892
0.00309099
0.00309274
0.00309446
0.00309614
0.0030978
0.00309943
0.00310103
0.00310259
0.00310413
0.00310563
0.00310711
0.00310856
0.00310997
0.00311136
0.00311272
0.00311405
0.00311535
0.00311662
0.00311787
0.00311908
0.00312027
0.00312143
0.00312256
0.00312366
0.00312474
0.00312578
0.00312681
0.0031278
0.00312877
0.00312971
0.00313062
0.00313151
0.00313237
0.00313321
0.00313402
0.0031348
0.00313556
0.0031363
0.00313701
0.00313769
0.00313835
0.00313899
0.0031396
0.00314019
0.00314075
0.00314129
0.00314181
0.0031423
0.00314277
0.00314322
0.00314365
0.00314405
0.00314443
0.00314479
0.00314512
0.00314544
0.00314573
0.003146
0.00314625
0.00314648
0.00314669
0.00314688
0.00314705
0.0031472
0.00314733
0.00314743
0.00314752
0.00314759
0.00314764
0.00314767
0.00314769
0.00314768
0.00314766
0.00314761
0.00314755
0.00314748
0.00314738
0.00314727
0.00314714
0.00314699
0.00314682
0.00314664
0.00314645
0.00314623
0.003146
0.00314576
0.0031455
0.00314522
0.00314493
0.00314462
0.0031443
0.00314396
0.00314361
0.00314324
0.00314286
0.00314247
0.00314206
0.00314164
0.0031412
0.00314076
0.00314029
0.00313982
0.00313933
0.00313883
0.00313832
0.0031378
0.00313726
0.00313671
0.00313615
0.00313558
0.003135
0.0031344
0.0031338
0.00313318
0.00313255
0.00313192
0.00313127
0.00313061
0.00312994
0.00312927
0.00312858
0.00312788
0.00312718
0.00312646
0.00312573
0.003125
0.00312426
0.00312351
0.00312275
0.00312198
0.0031212
0.00312042
0.00311963
0.00311883
0.00311802
0.00311721
0.00311638
0.00311555
0.00311472
0.00311387
0.00311302
0.00311217
0.0031113
0.00311044
0.00310956
0.00310868
0.00310779
0.0031069
0.003106
0.00310509
0.00310418
0.00310327
0.00310235
0.00310142
0.00310049
0.00309956
0.00309862
0.00309767
0.00309672
0.00309577
0.00309481
0.00309385
0.00309289
0.00309192
0.00309094
0.00308997
0.00308899
0.003088
0.00308702
0.00308603
0.00308503
0.00308404
0.00308304
0.00308204
0.00308103
0.00308003
0.00307902
0.00307801
0.00307699
0.00307598
0.00307496
0.00307394
0.00307292
0.00307189
0.00307087
0.00306984
0.00306881
0.00306778
0.00306675
0.00306572
0.00306469
0.00306365
0.00306262
0.00306158
0.00306054
0.00305951
0.00305847
0.00305743
0.00305639
0.00305535
0.00305431
0.00305327
0.00305224
0.0030512
0.00305016
0.00304912
0.00304808
0.00304704
0.003046
0.00304496
0.00304393
0.00304289
0.00304185
0.00304082
0.00303979
0.00303875
0.00303772
0.00303669
0.00303566
0.00303463
0.0030336
0.00303258
0.00303155
0.00303053
0.00302951
0.00302849
0.00302747
0.00302645
0.00302544
0.00302443
0.00302342
0.00302241
0.0030214
0.0030204
0.00301939
0.00301839
0.0030174
0.0030164
0.00301541
0.00301442
0.00301343
0.00301244
0.00301146
0.00301048
0.0030095
0.00300853
0.00300756
0.00300659
0.00300562
0.00300466
0.0030037
0.00300274
0.00300179
0.00300084
0.00299989
0.00299895
0.00299801
0.00299707
0.00299613
0.0029952
0.00299427
0.00299335
0.00299243
0.00299151
0.0029906
0.00298969
0.00298878
0.00298788
0.00298698
0.00298609
0.00298519
0.00298431
0.00298342
0.00298254
0.00298167
0.00298079
0.00297992
0.00297906
0.0029782
0.00297734
0.00297649
0.00297564
0.0029748
0.00297396
0.00297312
0.00297229
0.00297146
0.00297063
0.00296981
0.002969
0.00296819
0.00296738
0.00296657
0.00296577
0.00296498
0.00296419
0.0029634
0.00296262
0.00296184
0.00296107
0.0029603
0.00295953
0.00295877
0.00295801
0.00295726
0.00295651
0.00295576
0.00295502
0.00295429
0.00295356
0.00295283
0.0029521
0.00295139
0.00295067
0.00294996
0.00294925
0.00294855
0.00294785
0.00294716
0.00294647
0.00294579
0.0029451
0.00294443
0.00294376
0.00294309
0.00294242
0.00294176
0.00294111
0.00294046
0.00293981
0.00293916
0.00293852
0.00293789
0.00293726
0.00293663
0.00293601
0.00293539
0.00293478
0.00293416
0.00293356
0.00293296
0.00293236
0.00293176
0.00293117
0.00293058
0.00293
0.00292942
0.00292885
0.00292828
0.00292771
0.00292715
0.00292659
0.00292603
0.00292548
0.00292493
0.00292439
0.00292385
0.00292331
0.00292278
0.00292225
0.00292173
0.0029212
0.00292069
0.00292017
0.00291966
0.00291915
0.00291865
0.00291815
0.00291766
0.00291716
0.00291667
0.00291619
0.00291571
0.00291523
0.00291475
0.00291428
0.00291381
0.00291335
0.00291289
0.00291243
0.00291197
0.00291152
0.00291108
0.00291063
0.00291019
0.00290975
0.00290932
0.00290888
0.00290846
0.00290803
0.00290761
0.00290719
0.00290677
0.00290636
0.00290595
0.00290555
0.00290514
0.00290474
0.00290435
0.00290395
0.00290356
0.00290317
0.00290279
0.0029024
0.00290202
0.00290165
0.00290127
0.0029009
0.00290053
0.00290017
0.00289981
0.00289945
0.00289909
0.00289874
0.00289838
0.00289804
0.00289769
0.00289735
0.00289701
0.00289667
0.00289633
0.002896
0.00289567
0.00289534
0.00289502
0.0028947
0.00289438
0.00289406
0.00289374
0.00289343
0.00289312
0.00289281
0.00289251
0.00289221
0.0028919
0.00289161
0.00289131
0.00289102
0.00289073
0.00289044
0.00289015
0.00288987
0.00288959
0.00288931
0.00288903
0.00288876
0.00288848
0.00288821
0.00288794
0.00288768
0.00288741
0.00288715
0.00288689
0.00288663
0.00288638
0.00288612
0.00288587
0.00288562
0.00288538
0.00288513
0.00288489
0.00288465
0.00288441
0.00288417
0.00288393
0.0028837
0.00288347
0.00288324
0.00288301
0.00288279
0.00288256
0.00288234
0.00288212
0.0028819
0.00288169
0.00288147
0.00288126
0.00288105
0.00288084
0.00288063
0.00288042
0.00288022
0.00288002
0.00287982
0.00287962
0.00287942
0.00287923
0.00287903
0.00287884
0.00287865
0.00287846
0.00287828
0.00287809
0.00287791
0.00287772
0.00287754
0.00287737
0.00287719
0.00287701
0.00287684
0.00287667
0.00287649
0.00287633
0.00287616
0.00287599
0.00287583
0.00287566
0.0028755
0.00287534
0.00287518
0.00287502
0.00287487
0.00287471
0.00287456
0.00287441
0.00287426
0.00287411
0.00287396
0.00287382
0.00287367
0.00287353
0.00287339
0.00287325
0.00287311
0.00287297
0.00287283
0.0028727
0.00287257
0.00287243
0.0028723
0.00287217
0.00287205
0.00287192
0.00287179
0.00287167
0.00287155
0.00287142
0.0028713
0.00287118
0.00287107
0.00287095
0.00287084
0.00287072
0.00287061
0.0028705
0.00287039
0.00287028
0.00287017
0.00287006
0.00286996
0.00286985
0.00286975
0.00286965
0.00286955
0.00286945
0.00286935
0.00286925
0.00286916
0.00286906
0.00286897
0.00286888
0.00286879
0.0028687
0.00286861
0.00286852
0.00286844
0.00286835
0.00286827
0.00286819
0.0028681
0.00286802
0.00286794
0.00286787
0.00286779
0.00286771
0.00286764
0.00286757
0.00286749
0.00286742
0.00286735
0.00286728
0.00286721
0.00286715
0.00286708
0.00286702
0.00286695
0.00286689
0.00286683
0.00286677
0.00286671
0.00286665
0.0028666
0.00286654
0.00286649
0.00286643
0.00286638
0.00286633
0.00286628
0.00286623
0.00286618
0.00286614
0.00286609
0.00286605
0.002866
0.00286596
0.00286592
0.00286588
0.00286584
0.0028658
0.00286577
0.00286573
0.0028657
0.00286566
0.00286563
0.0028656
0.00286557
0.00286554
0.00286552
0.00286549
0.00286546
0.00286544
0.00286542
0.00286539
0.00286537
0.00286535
0.00286533
0.00286532
0.0028653
0.00286529
0.00286527
0.00286526
0.00286525
0.00286524
0.00286523
0.00286522
0.00286521
0.00286521
0.0028652
0.0028652
0.0028652
0.00286519
0.00286519
0.0028652
0.0028652
0.0028652
0.00286521
0.00286521
0.00286522
0.00286523
0.00286524
0.00286525
0.00286526
0.00286527
0.00286529
0.0028653
0.00286532
0.00286533
0.00286535
0.00286537
0.00286539
0.00286541
0.00286544
0.00286546
0.00286549
0.00286551
0.00286554
0.00286557
0.0028656
0.00286563
0.00286566
0.0028657
0.00286573
0.00286577
0.0028658
0.00286584
0.00286588
0.00286592
0.00286596
0.002866
0.00286605
0.00286609
0.00286614
0.00286618
0.00286623
0.00286628
0.00286633
0.00286638
0.00286643
0.00286648
0.00286654
0.00286659
0.00286665
0.00286671
0.00286677
0.00286683
0.00286689
0.00286695
0.00286701
0.00286708
0.00286714
0.00286721
0.00286728
0.00286735
0.00286742
0.00286749
0.00286756
0.00286763
0.00286771
0.00286778
0.00286786
0.00286794
0.00286802
0.0028681
0.00286818
0.00286826
0.00286835
0.00286843
0.00286852
0.00286861
0.00286869
0.00286878
0.00286887
0.00286897
0.00286906
0.00286915
0.00286925
0.00286935
0.00286944
0.00286954
0.00286964
0.00286975
0.00286985
0.00286995
0.00287006
0.00287016
0.00287027
0.00287038
0.00287049
0.0028706
0.00287072
0.00287083
0.00287094
0.00287106
0.00287118
0.0028713
0.00287142
0.00287154
0.00287166
0.00287179
0.00287191
0.00287204
0.00287217
0.0028723
0.00287243
0.00287256
0.00287269
0.00287283
0.00287296
0.0028731
0.00287324
0.00287338
0.00287352
0.00287367
0.00287381
0.00287396
0.0028741
0.00287425
0.0028744
0.00287455
0.00287471
0.00287486
0.00287502
0.00287517
0.00287533
0.00287549
0.00287566
0.00287582
0.00287598
0.00287615
0.00287632
0.00287649
0.00287666
0.00287683
0.002877
0.00287718
0.00287736
0.00287754
0.00287772
0.0028779
0.00287808
0.00287827
0.00287845
0.00287864
0.00287883
0.00287903
0.00287922
0.00287941
0.00287961
0.00287981
0.00288001
0.00288021
0.00288042
0.00288062
0.00288083
0.00288104
0.00288125
0.00288146
0.00288168
0.00288189
0.00288211
0.00288233
0.00288255
0.00288278
0.002883
0.00288323
0.00288346
0.00288369
0.00288393
0.00288416
0.0028844
0.00288464
0.00288488
0.00288512
0.00288537
0.00288561
0.00288586
0.00288611
0.00288637
0.00288662
0.00288688
0.00288714
0.0028874
0.00288767
0.00288793
0.0028882
0.00288847
0.00288874
0.00288902
0.0028893
0.00288958
0.00288986
0.00289014
0.00289043
0.00289072
0.00289101
0.0028913
0.0028916
0.00289189
0.00289219
0.0028925
0.0028928
0.00289311
0.00289342
0.00289373
0.00289405
0.00289436
0.00289468
0.00289501
0.00289533
0.00289566
0.00289599
0.00289632
0.00289666
0.002897
0.00289734
0.00289768
0.00289802
0.00289837
0.00289872
0.00289908
0.00289944
0.0028998
0.00290016
0.00290052
0.00290089
0.00290126
0.00290164
0.00290201
0.00290239
0.00290277
0.00290316
0.00290355
0.00290394
0.00290433
0.00290473
0.00290513
0.00290553
0.00290594
0.00290635
0.00290676
0.00290718
0.0029076
0.00290802
0.00290844
0.00290887
0.0029093
0.00290974
0.00291018
0.00291062
0.00291106
0.00291151
0.00291196
0.00291242
0.00291287
0.00291333
0.0029138
0.00291427
0.00291474
0.00291521
0.00291569
0.00291617
0.00291666
0.00291715
0.00291764
0.00291814
0.00291864
0.00291914
0.00291965
0.00292016
0.00292067
0.00292119
0.00292171
0.00292224
0.00292276
0.0029233
0.00292383
0.00292437
0.00292492
0.00292546
0.00292602
0.00292657
0.00292713
0.00292769
0.00292826
0.00292883
0.00292941
0.00292999
0.00293057
0.00293115
0.00293175
0.00293234
0.00293294
0.00293354
0.00293415
0.00293476
0.00293537
0.00293599
0.00293661
0.00293724
0.00293787
0.00293851
0.00293915
0.00293979
0.00294044
0.00294109
0.00294175
0.00294241
0.00294307
0.00294374
0.00294441
0.00294509
0.00294577
0.00294645
0.00294714
0.00294784
0.00294853
0.00294924
0.00294994
0.00295065
0.00295137
0.00295209
0.00295281
0.00295354
0.00295427
0.002955
0.00295575
0.00295649
0.00295724
0.00295799
0.00295875
0.00295951
0.00296028
0.00296105
0.00296182
0.0029626
0.00296338
0.00296417
0.00296496
0.00296575
0.00296655
0.00296736
0.00296817
0.00296898
0.00296979
0.00297061
0.00297144
0.00297227
0.0029731
0.00297394
0.00297478
0.00297562
0.00297647
0.00297732
0.00297818
0.00297904
0.0029799
0.00298077
0.00298165
0.00298252
0.0029834
0.00298429
0.00298517
0.00298607
0.00298696
0.00298786
0.00298876
0.00298967
0.00299058
0.00299149
0.00299241
0.00299333
0.00299425
0.00299518
0.00299611
0.00299705
0.00299798
0.00299893
0.00299987
0.00300082
0.00300177
0.00300272
0.00300368
0.00300464
0.0030056
0.00300657
0.00300754
0.00300851
0.00300948
0.00301046
0.00301144
0.00301242
0.00301341
0.0030144
0.00301539
0.00301638
0.00301738
0.00301837
0.00301937
0.00302038
0.00302138
0.00302239
0.0030234
0.00302441
0.00302542
0.00302643
0.00302745
0.00302847
0.00302949
0.00303051
0.00303153
0.00303256
0.00303358
0.00303461
0.00303564
0.00303667
0.0030377
0.00303873
0.00303976
0.0030408
0.00304183
0.00304287
0.00304391
0.00304494
0.00304598
0.00304702
0.00304806
0.0030491
0.00305014
0.00305117
0.00305221
0.00305325
0.00305429
0.00305533
0.00305637
0.00305741
0.00305845
0.00305949
0.00306052
0.00306156
0.0030626
0.00306363
0.00306467
0.0030657
0.00306673
0.00306776
0.00306879
0.00306982
0.00307085
0.00307187
0.0030729
0.00307392
0.00307494
0.00307596
0.00307697
0.00307799
0.003079
0.00308001
0.00308101
0.00308202
0.00308302
0.00308402
0.00308501
0.00308601
0.003087
0.00308798
0.00308897
0.00308995
0.00309092
0.0030919
0.00309287
0.00309383
0.00309479
0.00309575
0.0030967
0.00309765
0.0030986
0.00309954
0.00310047
0.0031014
0.00310233
0.00310325
0.00310416
0.00310507
0.00310598
0.00310688
0.00310777
0.00310866
0.00310954
0.00311042
0.00311129
0.00311215
0.00311301
0.00311386
0.0031147
0.00311553
0.00311636
0.00311719
0.003118
0.00311881
0.00311961
0.0031204
0.00312119
0.00312196
0.00312273
0.00312349
0.00312424
0.00312498
0.00312572
0.00312644
0.00312716
0.00312786
0.00312856
0.00312925
0.00312993
0.00313059
0.00313125
0.0031319
0.00313254
0.00313316
0.00313378
0.00313439
0.00313498
0.00313556
0.00313613
0.00313669
0.00313724
0.00313778
0.0031383
0.00313882
0.00313932
0.0031398
0.00314028
0.00314074
0.00314119
0.00314162
0.00314204
0.00314245
0.00314285
0.00314323
0.00314359
0.00314394
0.00314428
0.0031446
0.00314491
0.0031452
0.00314548
0.00314574
0.00314599
0.00314622
0.00314643
0.00314663
0.00314681
0.00314697
0.00314712
0.00314725
0.00314737
0.00314746
0.00314754
0.0031476
0.00314764
0.00314767
0.00314767
0.00314766
0.00314763
0.00314758
0.00314751
0.00314742
0.00314731
0.00314718
0.00314704
0.00314687
0.00314668
0.00314647
0.00314624
0.00314599
0.00314572
0.00314543
0.00314511
0.00314477
0.00314442
0.00314404
0.00314363
0.00314321
0.00314276
0.00314229
0.0031418
0.00314128
0.00314074
0.00314018
0.00313959
0.00313898
0.00313834
0.00313768
0.003137
0.00313629
0.00313555
0.00313479
0.00313401
0.0031332
0.00313236
0.0031315
0.00313061
0.0031297
0.00312876
0.00312779
0.0031268
0.00312577
0.00312473
0.00312365
0.00312255
0.00312142
0.00312026
0.00311907
0.00311786
0.00311661
0.00311534
0.00311404
0.00311271
0.00311135
0.00310997
0.00310855
0.0031071
0.00310563
0.00310412
0.00310258
0.00310102
0.00309942
0.00309779
0.00309614
0.00309445
0.00309273
0.00309098
0.0030892
0.00308738
0.00308554
0.00308366
0.00308176
0.00307982
0.00307784
0.00307584
0.0030738
0.00307173
0.00306963
0.0030675
0.00306533
0.00306313
0.00306089
0.00305863
0.00305633
0.00305399
0.00305163
0.00304922
0.00304679
0.00304432
0.00304182
0.00303928
0.00303671
0.0030341
0.00303146
0.00302879
0.00302608
0.00302333
0.00302055
0.00301774
0.00301489
0.003012
0.00300908
0.00300613
0.00300313
0.00300011
0.00299704
0.00299395
0.00299081
0.00298764
0.00298444
0.00298119
0.00297791
0.0029746
0.00297125
0.00296786
0.00296444
0.00296098
0.00295748
0.00295395
0.00295038
0.00294677
0.00294313
0.00293945
0.00293573
0.00293198
0.00292818
0.00292436
0.00292049
0.00291659
0.00291265
0.00290867
0.00290465
0.0029006
0.00289651
0.00289238
0.00288822
0.00288402
0.00287978
0.0028755
0.00287119
0.00286683
0.00286244
0.00285801
0.00285355
0.00284904
0.0028445
0.00283992
0.00283531
0.00283065
0.00282596
0.00282123
0.00281646
0.00281165
0.0028068
0.00280192
0.002797
0.00279204
0.00278704
0.002782
0.00277693
0.00277182
0.00276667
0.00276148
0.00275625
0.00275098
0.00274568
0.00274034
0.00273496
0.00272954
0.00272408
0.00271859
0.00271305
0.00270748
0.00270187
0.00269622
0.00269053
0.00268481
0.00267904
0.00267324
0.0026674
0.00266152
0.0026556
0.00264964
0.00264365
0.00263761
0.00263154
0.00262543
0.00261928
0.00261309
0.00260686
0.0026006
0.00259429
0.00258795
0.00258157
0.00257514
0.00256868
0.00256219
0.00255565
0.00254907
0.00254246
0.0025358
0.00252911
0.00252238
0.00251561
0.0025088
0.00250195
0.00249506
0.00248813
0.00248117
0.00247416
0.00246712
0.00246003
0.00245291
0.00244575
0.00243854
0.0024313
0.00242402
0.0024167
0.00240934
0.00240194
0.0023945
0.00238702
0.0023795
0.00237195
0.00236435
0.00235671
0.00234903
0.00234131
0.00233355
0.00232576
0.00231787
0.00230658
0.00229294
0.00227769
0.00226139
0.00224449
0.00222737
0.00221029
0.00219346
0.00217701
0.00216105
0.00214563
0.00213078
0.00211652
0.00210284
0.00208973
0.00207715
0.00206509
0.00205351
0.00204238
0.00203165
0.0020213
0.00201129
0.00200159
0.00199217
0.00198299
0.00197403
0.00196527
0.00195668
0.00194824
0.00193993
0.00193173
0.00192362
0.00191559
0.00190763
0.00189972
0.00189185
0.00188402
0.00187621
0.00186841
0.00186062
0.00185283
0.00184503
0.00183722
0.0018294
0.00182156
0.00181369
0.00180579
0.00179787
0.00178991
0.00178191
0.00177388
0.0017658
0.00175768
0.00174952
0.00174131
0.00173306
0.00172475
0.0017164
0.00170799
0.00169953
0.00169102
0.00168245
0.00167383
0.00166516
0.00165643
0.00164764
0.0016388
0.00162989
0.00162094
0.00161192
0.00160284
0.00159371
0.00158452
0.00157527
0.00156597
0.0015566
0.00154718
0.0015377
0.00152817
0.00151858
0.00150893
0.00149923
0.00148948
0.00147967
0.00146981
0.0014599
0.00144994
0.00143993
0.00142986
0.00141975
0.00140958
0.00139935
0.00138905
0.00137867
0.00136818
0.00135754
0.00134669
0.00133555
0.00132398
0.00131177
0.0012994
0.00128696
0.00127446
0.00126188
0.00124923
0.00123651
0.00122372
0.00121086
0.00119793
0.00118493
0.00117186
0.00115872
0.0011455
0.00113222
0.00111886
0.00110543
0.00109193
0.00107836
0.00106473
0.00105101
0.00103723
0.00102338
0.00100946
0.000995466
0.000981402
0.000967269
0.000953065
0.000938791
0.000924447
0.000910033
0.00089555
0.000880998
0.000866377
0.000851687
0.000836928
0.000822102
0.000807208
0.000792247
0.000777219
0.000762124
0.000746964
0.000731739
0.000716449
0.000701096
0.000685679
0.0006702
0.000654661
0.00063906
0.000623401
0.000607684
0.00059191
0.000576081
0.000560199
0.000544264
0.00052828
0.000512247
0.000496169
0.000480047
0.000463885
0.000447685
0.000431451
0.000415186
0.000398895
0.000382581
0.000366249
0.000349906
0.000333558
0.00031721
0.000300872
0.000284552
0.000267869
0.000251026
0.000234208
0.000217501
0.000200951
0.00018459
0.000168451
0.000152571
0.000136992
0.000121767
0.000106951
9.26196e-05
7.88556e-05
6.57442e-05
5.33425e-05
4.15034e-05
3.00898e-05
1.99873e-05
1.16791e-05
5.65413e-06
2.08888e-06
5.25544e-07
7.44827e-08
4.64741e-09
1.15441e-09
)
;

boundaryField
{
    top_wall
    {
        type            nutLowReWallFunction;
        value           uniform 0;
    }
    inlet
    {
        type            cyclic;
    }
    bot_wall
    {
        type            nutLowReWallFunction;
        value           uniform 0;
    }
    outlet
    {
        type            cyclic;
    }
    frontAndBack
    {
        type            empty;
    }
}


// ************************************************************************* //
