/*--------------------------------*- C++ -*----------------------------------*\
| =========                 |                                                 |
| \\      /  F ield         | OpenFOAM: The Open Source CFD Toolbox           |
|  \\    /   O peration     | Version:  2312                                  |
|   \\  /    A nd           | Website:  www.openfoam.com                      |
|    \\/     M anipulation  |                                                 |
\*---------------------------------------------------------------------------*/
FoamFile
{
    version     2.0;
    format      ascii;
    arch        "LSB;label=32;scalar=64";
    class       volVectorField;
    location    "13.67";
    object      U;
}
// * * * * * * * * * * * * * * * * * * * * * * * * * * * * * * * * * * * * * //

dimensions      [0 1 -1 0 0 0 0];

internalField   nonuniform List<vector> 
1000
(
(0.215353 -2.07692e-18 0)
(0.389958 -2.06543e-18 0)
(0.471629 -2.44929e-18 0)
(0.520902 -2.39288e-18 0)
(0.555426 -2.37206e-18 0)
(0.581765 -2.36163e-18 0)
(0.602971 -2.38362e-18 0)
(0.620682 -2.35157e-18 0)
(0.63587 -2.23424e-18 0)
(0.649157 -2.16146e-18 0)
(0.660962 -2.27047e-18 0)
(0.67158 -2.44671e-18 0)
(0.681227 -2.61395e-18 0)
(0.690066 -2.77309e-18 0)
(0.698222 -2.95038e-18 0)
(0.705794 -3.09338e-18 0)
(0.712859 -3.12225e-18 0)
(0.719483 -3.09894e-18 0)
(0.725717 -3.06184e-18 0)
(0.731605 -3.02309e-18 0)
(0.737185 -2.98415e-18 0)
(0.742487 -2.94601e-18 0)
(0.747539 -2.90929e-18 0)
(0.752363 -2.87435e-18 0)
(0.75698 -2.84144e-18 0)
(0.761407 -2.8107e-18 0)
(0.76566 -2.78224e-18 0)
(0.769752 -2.75612e-18 0)
(0.773695 -2.73237e-18 0)
(0.7775 -2.71102e-18 0)
(0.781177 -2.69094e-18 0)
(0.784735 -2.6721e-18 0)
(0.788181 -2.65546e-18 0)
(0.791522 -2.64077e-18 0)
(0.794765 -2.62788e-18 0)
(0.797916 -2.61663e-18 0)
(0.80098 -2.60684e-18 0)
(0.803963 -2.59838e-18 0)
(0.806867 -2.59108e-18 0)
(0.809699 -2.58481e-18 0)
(0.812461 -2.57944e-18 0)
(0.815157 -2.57487e-18 0)
(0.817791 -2.571e-18 0)
(0.820365 -2.56773e-18 0)
(0.822883 -2.56499e-18 0)
(0.825346 -2.56271e-18 0)
(0.827758 -2.56083e-18 0)
(0.83012 -2.55931e-18 0)
(0.832435 -2.55811e-18 0)
(0.834705 -2.55718e-18 0)
(0.836932 -2.5565e-18 0)
(0.839118 -2.55604e-18 0)
(0.841263 -2.55579e-18 0)
(0.84337 -2.55572e-18 0)
(0.845441 -2.55582e-18 0)
(0.847476 -2.55609e-18 0)
(0.849477 -2.55651e-18 0)
(0.851445 -2.55708e-18 0)
(0.853382 -2.55779e-18 0)
(0.855288 -2.55863e-18 0)
(0.857165 -2.55961e-18 0)
(0.859014 -2.56071e-18 0)
(0.860834 -2.56195e-18 0)
(0.862629 -2.56331e-18 0)
(0.864398 -2.56479e-18 0)
(0.866142 -2.5664e-18 0)
(0.867862 -2.56812e-18 0)
(0.869558 -2.56996e-18 0)
(0.871233 -2.57192e-18 0)
(0.872885 -2.57399e-18 0)
(0.874516 -2.57617e-18 0)
(0.876126 -2.57845e-18 0)
(0.877717 -2.58084e-18 0)
(0.879288 -2.58333e-18 0)
(0.880841 -2.58592e-18 0)
(0.882375 -2.58861e-18 0)
(0.883891 -2.59138e-18 0)
(0.88539 -2.59425e-18 0)
(0.886872 -2.59719e-18 0)
(0.888338 -2.60022e-18 0)
(0.889788 -2.60332e-18 0)
(0.891222 -2.60649e-18 0)
(0.892642 -2.60973e-18 0)
(0.894046 -2.61303e-18 0)
(0.895437 -2.61639e-18 0)
(0.896813 -2.61981e-18 0)
(0.898175 -2.62327e-18 0)
(0.899525 -2.62678e-18 0)
(0.900861 -2.63033e-18 0)
(0.902185 -2.63392e-18 0)
(0.903497 -2.63754e-18 0)
(0.904796 -2.64118e-18 0)
(0.906084 -2.64485e-18 0)
(0.90736 -2.64852e-18 0)
(0.908625 -2.65221e-18 0)
(0.909879 -2.65589e-18 0)
(0.911122 -2.65957e-18 0)
(0.912355 -2.66323e-18 0)
(0.913577 -2.66685e-18 0)
(0.91479 -2.67044e-18 0)
(0.915992 -2.67397e-18 0)
(0.917185 -2.67742e-18 0)
(0.918369 -2.68078e-18 0)
(0.919544 -2.68402e-18 0)
(0.920709 -2.68711e-18 0)
(0.921866 -2.69002e-18 0)
(0.923014 -2.69271e-18 0)
(0.924154 -2.69513e-18 0)
(0.925286 -2.69724e-18 0)
(0.926409 -2.69896e-18 0)
(0.927524 -2.70024e-18 0)
(0.928632 -2.70098e-18 0)
(0.929732 -2.70108e-18 0)
(0.930825 -2.70045e-18 0)
(0.93191 -2.6994e-18 0)
(0.932988 -2.69786e-18 0)
(0.934059 -2.69529e-18 0)
(0.935124 -2.69158e-18 0)
(0.936181 -2.68704e-18 0)
(0.937232 -2.6815e-18 0)
(0.938276 -2.67477e-18 0)
(0.939314 -2.66669e-18 0)
(0.940345 -2.65705e-18 0)
(0.941371 -2.64563e-18 0)
(0.94239 -2.63223e-18 0)
(0.943404 -2.61707e-18 0)
(0.944411 -2.59995e-18 0)
(0.945413 -2.58072e-18 0)
(0.946409 -2.55921e-18 0)
(0.9474 -2.53533e-18 0)
(0.948385 -2.50926e-18 0)
(0.949365 -2.48105e-18 0)
(0.950339 -2.45085e-18 0)
(0.951309 -2.41898e-18 0)
(0.952273 -2.38593e-18 0)
(0.953232 -2.35222e-18 0)
(0.954187 -2.31832e-18 0)
(0.955136 -2.28445e-18 0)
(0.956081 -2.25363e-18 0)
(0.957021 -2.20158e-18 0)
(0.957957 -2.07144e-18 0)
(0.958887 -1.93971e-18 0)
(0.959814 -1.88324e-18 0)
(0.960736 -1.8451e-18 0)
(0.961654 -1.80102e-18 0)
(0.962567 -1.75403e-18 0)
(0.963476 -1.70431e-18 0)
(0.964382 -1.65258e-18 0)
(0.965283 -1.59936e-18 0)
(0.96618 -1.54496e-18 0)
(0.967073 -1.48973e-18 0)
(0.967962 -1.43388e-18 0)
(0.968847 -1.3775e-18 0)
(0.969728 -1.32079e-18 0)
(0.970606 -1.26371e-18 0)
(0.97148 -1.20615e-18 0)
(0.97235 -1.14823e-18 0)
(0.973217 -1.08983e-18 0)
(0.97408 -1.03086e-18 0)
(0.97494 -9.7124e-19 0)
(0.975796 -9.10905e-19 0)
(0.976649 -8.49802e-19 0)
(0.977498 -7.87893e-19 0)
(0.978344 -7.25159e-19 0)
(0.979187 -6.61601e-19 0)
(0.980026 -5.97235e-19 0)
(0.980862 -5.32091e-19 0)
(0.981695 -4.66209e-19 0)
(0.982525 -3.99878e-19 0)
(0.983352 -3.29796e-19 0)
(0.984175 -3.02732e-19 0)
(0.984996 -3.54337e-19 0)
(0.985813 -4.06029e-19 0)
(0.986628 -3.78798e-19 0)
(0.987439 -3.08041e-19 0)
(0.988248 -2.40588e-19 0)
(0.989053 -1.73233e-19 0)
(0.989856 -1.062e-19 0)
(0.990656 -3.97122e-20 0)
(0.991453 2.59891e-20 0)
(0.992247 9.06361e-20 0)
(0.993038 1.54158e-19 0)
(0.993827 2.16249e-19 0)
(0.994613 2.76565e-19 0)
(0.995396 3.34944e-19 0)
(0.996176 3.90967e-19 0)
(0.996954 4.4418e-19 0)
(0.997729 4.94292e-19 0)
(0.998501 5.40967e-19 0)
(0.999271 5.83595e-19 0)
(1.00004 6.21746e-19 0)
(1.0008 6.54944e-19 0)
(1.00156 6.82683e-19 0)
(1.00232 7.04429e-19 0)
(1.00308 7.19418e-19 0)
(1.00383 7.27079e-19 0)
(1.00458 7.26804e-19 0)
(1.00533 7.17688e-19 0)
(1.00608 6.98453e-19 0)
(1.00682 6.67497e-19 0)
(1.00756 6.21943e-19 0)
(1.0083 5.61144e-19 0)
(1.00904 4.53153e-19 0)
(1.00977 2.46243e-19 0)
(1.0105 3.80353e-20 0)
(1.01123 -7.16982e-20 0)
(1.01196 -1.45771e-19 0)
(1.01268 -2.28499e-19 0)
(1.0134 -3.08108e-19 0)
(1.01412 -3.76026e-19 0)
(1.01484 -4.34815e-19 0)
(1.01555 -4.85518e-19 0)
(1.01626 -5.29018e-19 0)
(1.01697 -5.66136e-19 0)
(1.01768 -5.97436e-19 0)
(1.01838 -6.23469e-19 0)
(1.01909 -6.44754e-19 0)
(1.01978 -6.61781e-19 0)
(1.02048 -6.75233e-19 0)
(1.02118 -6.85521e-19 0)
(1.02187 -6.93019e-19 0)
(1.02256 -6.98036e-19 0)
(1.02324 -7.01047e-19 0)
(1.02393 -7.02474e-19 0)
(1.02461 -7.02448e-19 0)
(1.02529 -7.01278e-19 0)
(1.02596 -6.99239e-19 0)
(1.02664 -6.96575e-19 0)
(1.02731 -6.93258e-19 0)
(1.02798 -6.89466e-19 0)
(1.02865 -6.85346e-19 0)
(1.02931 -6.81014e-19 0)
(1.02997 -6.76565e-19 0)
(1.03063 -6.72072e-19 0)
(1.03129 -6.67597e-19 0)
(1.03194 -6.63185e-19 0)
(1.03259 -6.58873e-19 0)
(1.03324 -6.54688e-19 0)
(1.03389 -6.5065e-19 0)
(1.03453 -6.46774e-19 0)
(1.03518 -6.43068e-19 0)
(1.03581 -6.39537e-19 0)
(1.03645 -6.36184e-19 0)
(1.03708 -6.33006e-19 0)
(1.03772 -6.30001e-19 0)
(1.03834 -6.27164e-19 0)
(1.03897 -6.24487e-19 0)
(1.03959 -6.21963e-19 0)
(1.04021 -6.19583e-19 0)
(1.04083 -6.1734e-19 0)
(1.04145 -6.15223e-19 0)
(1.04206 -6.13224e-19 0)
(1.04267 -6.11334e-19 0)
(1.04328 -6.09543e-19 0)
(1.04388 -6.07843e-19 0)
(1.04448 -6.06226e-19 0)
(1.04508 -6.04684e-19 0)
(1.04568 -6.0321e-19 0)
(1.04627 -6.01796e-19 0)
(1.04687 -6.00436e-19 0)
(1.04745 -5.99124e-19 0)
(1.04804 -5.97854e-19 0)
(1.04862 -5.9662e-19 0)
(1.0492 -5.95417e-19 0)
(1.04978 -5.94241e-19 0)
(1.05035 -5.93088e-19 0)
(1.05093 -5.91952e-19 0)
(1.0515 -5.9083e-19 0)
(1.05206 -5.89719e-19 0)
(1.05263 -5.88615e-19 0)
(1.05319 -5.87514e-19 0)
(1.05374 -5.86413e-19 0)
(1.0543 -5.85311e-19 0)
(1.05485 -5.84202e-19 0)
(1.0554 -5.83086e-19 0)
(1.05595 -5.8196e-19 0)
(1.05649 -5.8082e-19 0)
(1.05703 -5.79666e-19 0)
(1.05757 -5.78494e-19 0)
(1.0581 -5.77303e-19 0)
(1.05864 -5.76091e-19 0)
(1.05917 -5.74856e-19 0)
(1.05969 -5.73597e-19 0)
(1.06022 -5.72312e-19 0)
(1.06074 -5.71e-19 0)
(1.06125 -5.6966e-19 0)
(1.06177 -5.6829e-19 0)
(1.06228 -5.66889e-19 0)
(1.06279 -5.65458e-19 0)
(1.06329 -5.63994e-19 0)
(1.0638 -5.62497e-19 0)
(1.0643 -5.60967e-19 0)
(1.06479 -5.59404e-19 0)
(1.06529 -5.57807e-19 0)
(1.06578 -5.56176e-19 0)
(1.06627 -5.54511e-19 0)
(1.06675 -5.52811e-19 0)
(1.06724 -5.51078e-19 0)
(1.06772 -5.49311e-19 0)
(1.06819 -5.47511e-19 0)
(1.06867 -5.45678e-19 0)
(1.06914 -5.43812e-19 0)
(1.0696 -5.41915e-19 0)
(1.07007 -5.39986e-19 0)
(1.07053 -5.38026e-19 0)
(1.07099 -5.36037e-19 0)
(1.07144 -5.34018e-19 0)
(1.0719 -5.31971e-19 0)
(1.07235 -5.29896e-19 0)
(1.07279 -5.27795e-19 0)
(1.07324 -5.25668e-19 0)
(1.07368 -5.23517e-19 0)
(1.07411 -5.21341e-19 0)
(1.07455 -5.19143e-19 0)
(1.07498 -5.16923e-19 0)
(1.07541 -5.14683e-19 0)
(1.07583 -5.12423e-19 0)
(1.07626 -5.10144e-19 0)
(1.07668 -5.07848e-19 0)
(1.07709 -5.05535e-19 0)
(1.07751 -5.03206e-19 0)
(1.07792 -5.00863e-19 0)
(1.07833 -4.98507e-19 0)
(1.07873 -4.96138e-19 0)
(1.07913 -4.93758e-19 0)
(1.07953 -4.91367e-19 0)
(1.07993 -4.88967e-19 0)
(1.08032 -4.86558e-19 0)
(1.08071 -4.84141e-19 0)
(1.0811 -4.81717e-19 0)
(1.08148 -4.79288e-19 0)
(1.08187 -4.76854e-19 0)
(1.08224 -4.74415e-19 0)
(1.08262 -4.71973e-19 0)
(1.08299 -4.69528e-19 0)
(1.08336 -4.67082e-19 0)
(1.08373 -4.64634e-19 0)
(1.08409 -4.62186e-19 0)
(1.08445 -4.59738e-19 0)
(1.08481 -4.57291e-19 0)
(1.08517 -4.54846e-19 0)
(1.08552 -4.52402e-19 0)
(1.08587 -4.49962e-19 0)
(1.08622 -4.47525e-19 0)
(1.08656 -4.45091e-19 0)
(1.0869 -4.42662e-19 0)
(1.08724 -4.40237e-19 0)
(1.08757 -4.37818e-19 0)
(1.08791 -4.35405e-19 0)
(1.08824 -4.32998e-19 0)
(1.08856 -4.30597e-19 0)
(1.08889 -4.28203e-19 0)
(1.08921 -4.25816e-19 0)
(1.08953 -4.23437e-19 0)
(1.08984 -4.21065e-19 0)
(1.09015 -4.18702e-19 0)
(1.09046 -4.16347e-19 0)
(1.09077 -4.14001e-19 0)
(1.09108 -4.11663e-19 0)
(1.09138 -4.09335e-19 0)
(1.09168 -4.07016e-19 0)
(1.09197 -4.04707e-19 0)
(1.09227 -4.02407e-19 0)
(1.09256 -4.00117e-19 0)
(1.09285 -3.97837e-19 0)
(1.09313 -3.95567e-19 0)
(1.09342 -3.93307e-19 0)
(1.0937 -3.91058e-19 0)
(1.09397 -3.88819e-19 0)
(1.09425 -3.8659e-19 0)
(1.09452 -3.84372e-19 0)
(1.09479 -3.82165e-19 0)
(1.09506 -3.79968e-19 0)
(1.09532 -3.77782e-19 0)
(1.09558 -3.75606e-19 0)
(1.09584 -3.73442e-19 0)
(1.0961 -3.71288e-19 0)
(1.09635 -3.69145e-19 0)
(1.09661 -3.67012e-19 0)
(1.09685 -3.64891e-19 0)
(1.0971 -3.6278e-19 0)
(1.09734 -3.6068e-19 0)
(1.09759 -3.58591e-19 0)
(1.09783 -3.56513e-19 0)
(1.09806 -3.54445e-19 0)
(1.0983 -3.52388e-19 0)
(1.09853 -3.50341e-19 0)
(1.09876 -3.48305e-19 0)
(1.09898 -3.46279e-19 0)
(1.09921 -3.44265e-19 0)
(1.09943 -3.4226e-19 0)
(1.09965 -3.40266e-19 0)
(1.09986 -3.38282e-19 0)
(1.10008 -3.36308e-19 0)
(1.10029 -3.34345e-19 0)
(1.1005 -3.32392e-19 0)
(1.10071 -3.30449e-19 0)
(1.10091 -3.28516e-19 0)
(1.10111 -3.26592e-19 0)
(1.10131 -3.24679e-19 0)
(1.10151 -3.22776e-19 0)
(1.10171 -3.20882e-19 0)
(1.1019 -3.18998e-19 0)
(1.10209 -3.17124e-19 0)
(1.10228 -3.15259e-19 0)
(1.10246 -3.13404e-19 0)
(1.10265 -3.11558e-19 0)
(1.10283 -3.09721e-19 0)
(1.10301 -3.07894e-19 0)
(1.10319 -3.06076e-19 0)
(1.10336 -3.04267e-19 0)
(1.10353 -3.02467e-19 0)
(1.1037 -3.00677e-19 0)
(1.10387 -2.98895e-19 0)
(1.10404 -2.97122e-19 0)
(1.1042 -2.95358e-19 0)
(1.10436 -2.93602e-19 0)
(1.10452 -2.91855e-19 0)
(1.10468 -2.90117e-19 0)
(1.10483 -2.88388e-19 0)
(1.10499 -2.86667e-19 0)
(1.10514 -2.84954e-19 0)
(1.10529 -2.8325e-19 0)
(1.10543 -2.81554e-19 0)
(1.10558 -2.79866e-19 0)
(1.10572 -2.78186e-19 0)
(1.10586 -2.76515e-19 0)
(1.106 -2.74851e-19 0)
(1.10613 -2.73196e-19 0)
(1.10627 -2.71548e-19 0)
(1.1064 -2.69909e-19 0)
(1.10653 -2.68277e-19 0)
(1.10665 -2.66653e-19 0)
(1.10678 -2.65037e-19 0)
(1.1069 -2.63428e-19 0)
(1.10703 -2.61827e-19 0)
(1.10714 -2.60234e-19 0)
(1.10726 -2.58648e-19 0)
(1.10738 -2.5707e-19 0)
(1.10749 -2.55499e-19 0)
(1.1076 -2.53936e-19 0)
(1.10771 -2.52379e-19 0)
(1.10782 -2.50831e-19 0)
(1.10792 -2.49289e-19 0)
(1.10803 -2.47755e-19 0)
(1.10813 -2.46227e-19 0)
(1.10823 -2.44707e-19 0)
(1.10833 -2.43194e-19 0)
(1.10842 -2.41688e-19 0)
(1.10851 -2.40189e-19 0)
(1.10861 -2.38697e-19 0)
(1.1087 -2.37212e-19 0)
(1.10878 -2.35733e-19 0)
(1.10887 -2.34262e-19 0)
(1.10895 -2.32797e-19 0)
(1.10904 -2.31339e-19 0)
(1.10912 -2.29888e-19 0)
(1.10919 -2.28443e-19 0)
(1.10927 -2.27005e-19 0)
(1.10934 -2.25574e-19 0)
(1.10942 -2.2415e-19 0)
(1.10949 -2.22731e-19 0)
(1.10956 -2.2132e-19 0)
(1.10962 -2.19915e-19 0)
(1.10969 -2.18516e-19 0)
(1.10975 -2.17124e-19 0)
(1.10981 -2.15738e-19 0)
(1.10987 -2.14359e-19 0)
(1.10993 -2.12985e-19 0)
(1.10999 -2.11619e-19 0)
(1.11004 -2.10258e-19 0)
(1.11009 -2.08904e-19 0)
(1.11014 -2.07556e-19 0)
(1.11019 -2.06214e-19 0)
(1.11024 -2.04878e-19 0)
(1.11028 -2.03549e-19 0)
(1.11033 -2.02225e-19 0)
(1.11037 -2.00908e-19 0)
(1.11041 -1.99597e-19 0)
(1.11044 -1.98292e-19 0)
(1.11048 -1.96992e-19 0)
(1.11051 -1.95699e-19 0)
(1.11055 -1.94412e-19 0)
(1.11058 -1.93131e-19 0)
(1.11061 -1.91855e-19 0)
(1.11063 -1.90586e-19 0)
(1.11066 -1.89323e-19 0)
(1.11068 -1.88065e-19 0)
(1.1107 -1.86813e-19 0)
(1.11072 -1.85567e-19 0)
(1.11074 -1.84327e-19 0)
(1.11076 -1.83092e-19 0)
(1.11077 -1.81863e-19 0)
(1.11078 -1.8064e-19 0)
(1.11079 -1.79423e-19 0)
(1.1108 -1.78209e-19 0)
(1.11081 -1.77e-19 0)
(1.11081 -1.75794e-19 0)
(1.11082 -1.74593e-19 0)
(1.11082 -1.73396e-19 0)
(1.11082 -1.72203e-19 0)
(1.11082 -1.71014e-19 0)
(1.11081 -1.6983e-19 0)
(1.11081 -1.68651e-19 0)
(1.1108 -1.67475e-19 0)
(1.11079 -1.66303e-19 0)
(1.11078 -1.65134e-19 0)
(1.11077 -1.6397e-19 0)
(1.11076 -1.62812e-19 0)
(1.11074 -1.6166e-19 0)
(1.11072 -1.60513e-19 0)
(1.1107 -1.59371e-19 0)
(1.11068 -1.58235e-19 0)
(1.11066 -1.57105e-19 0)
(1.11063 -1.5598e-19 0)
(1.11061 -1.5486e-19 0)
(1.11058 -1.53745e-19 0)
(1.11055 -1.52636e-19 0)
(1.11051 -1.51532e-19 0)
(1.11048 -1.50434e-19 0)
(1.11044 -1.49341e-19 0)
(1.11041 -1.48253e-19 0)
(1.11037 -1.4717e-19 0)
(1.11033 -1.46093e-19 0)
(1.11028 -1.45021e-19 0)
(1.11024 -1.43954e-19 0)
(1.11019 -1.42892e-19 0)
(1.11014 -1.41836e-19 0)
(1.11009 -1.40784e-19 0)
(1.11004 -1.39738e-19 0)
(1.10999 -1.38698e-19 0)
(1.10993 -1.37662e-19 0)
(1.10987 -1.36631e-19 0)
(1.10981 -1.35606e-19 0)
(1.10975 -1.34586e-19 0)
(1.10969 -1.33571e-19 0)
(1.10962 -1.3256e-19 0)
(1.10956 -1.31556e-19 0)
(1.10949 -1.30556e-19 0)
(1.10942 -1.29561e-19 0)
(1.10934 -1.28571e-19 0)
(1.10927 -1.27586e-19 0)
(1.10919 -1.26607e-19 0)
(1.10912 -1.25632e-19 0)
(1.10904 -1.24663e-19 0)
(1.10895 -1.23698e-19 0)
(1.10887 -1.22738e-19 0)
(1.10878 -1.21784e-19 0)
(1.1087 -1.20834e-19 0)
(1.10861 -1.1989e-19 0)
(1.10851 -1.1895e-19 0)
(1.10842 -1.18015e-19 0)
(1.10833 -1.17085e-19 0)
(1.10823 -1.1616e-19 0)
(1.10813 -1.1524e-19 0)
(1.10803 -1.14325e-19 0)
(1.10792 -1.13415e-19 0)
(1.10782 -1.12509e-19 0)
(1.10771 -1.11609e-19 0)
(1.1076 -1.10713e-19 0)
(1.10749 -1.09823e-19 0)
(1.10738 -1.08937e-19 0)
(1.10726 -1.08056e-19 0)
(1.10714 -1.07179e-19 0)
(1.10703 -1.06308e-19 0)
(1.1069 -1.05441e-19 0)
(1.10678 -1.04579e-19 0)
(1.10666 -1.03722e-19 0)
(1.10653 -1.0287e-19 0)
(1.1064 -1.02022e-19 0)
(1.10627 -1.01179e-19 0)
(1.10613 -1.00341e-19 0)
(1.106 -9.95078e-20 0)
(1.10586 -9.86792e-20 0)
(1.10572 -9.78552e-20 0)
(1.10558 -9.7036e-20 0)
(1.10543 -9.62214e-20 0)
(1.10529 -9.54115e-20 0)
(1.10514 -9.46063e-20 0)
(1.10499 -9.38057e-20 0)
(1.10483 -9.30098e-20 0)
(1.10468 -9.22185e-20 0)
(1.10452 -9.14318e-20 0)
(1.10436 -9.06498e-20 0)
(1.1042 -8.98724e-20 0)
(1.10404 -8.90995e-20 0)
(1.10387 -8.83313e-20 0)
(1.1037 -8.75676e-20 0)
(1.10353 -8.68085e-20 0)
(1.10336 -8.60539e-20 0)
(1.10319 -8.53039e-20 0)
(1.10301 -8.45584e-20 0)
(1.10283 -8.38174e-20 0)
(1.10265 -8.30809e-20 0)
(1.10246 -8.2349e-20 0)
(1.10228 -8.16215e-20 0)
(1.10209 -8.08985e-20 0)
(1.1019 -8.018e-20 0)
(1.10171 -7.94659e-20 0)
(1.10151 -7.87563e-20 0)
(1.10131 -7.80511e-20 0)
(1.10111 -7.73504e-20 0)
(1.10091 -7.6654e-20 0)
(1.10071 -7.59621e-20 0)
(1.1005 -7.52745e-20 0)
(1.10029 -7.45914e-20 0)
(1.10008 -7.39126e-20 0)
(1.09986 -7.32381e-20 0)
(1.09965 -7.2568e-20 0)
(1.09943 -7.19023e-20 0)
(1.09921 -7.12408e-20 0)
(1.09898 -7.05837e-20 0)
(1.09876 -6.99309e-20 0)
(1.09853 -6.92824e-20 0)
(1.0983 -6.86381e-20 0)
(1.09806 -6.79981e-20 0)
(1.09783 -6.73624e-20 0)
(1.09759 -6.67309e-20 0)
(1.09734 -6.61036e-20 0)
(1.0971 -6.54806e-20 0)
(1.09685 -6.48617e-20 0)
(1.09661 -6.42471e-20 0)
(1.09635 -6.36366e-20 0)
(1.0961 -6.30304e-20 0)
(1.09584 -6.24282e-20 0)
(1.09558 -6.18303e-20 0)
(1.09532 -6.12364e-20 0)
(1.09506 -6.06467e-20 0)
(1.09479 -6.00611e-20 0)
(1.09452 -5.94796e-20 0)
(1.09425 -5.89021e-20 0)
(1.09397 -5.83288e-20 0)
(1.0937 -5.77595e-20 0)
(1.09342 -5.71942e-20 0)
(1.09313 -5.6633e-20 0)
(1.09285 -5.60758e-20 0)
(1.09256 -5.55226e-20 0)
(1.09227 -5.49735e-20 0)
(1.09197 -5.44282e-20 0)
(1.09168 -5.3887e-20 0)
(1.09138 -5.33497e-20 0)
(1.09108 -5.28164e-20 0)
(1.09077 -5.2287e-20 0)
(1.09046 -5.17615e-20 0)
(1.09015 -5.12399e-20 0)
(1.08984 -5.07222e-20 0)
(1.08953 -5.02084e-20 0)
(1.08921 -4.96985e-20 0)
(1.08889 -4.91924e-20 0)
(1.08856 -4.86901e-20 0)
(1.08824 -4.81917e-20 0)
(1.08791 -4.7697e-20 0)
(1.08757 -4.72062e-20 0)
(1.08724 -4.67191e-20 0)
(1.0869 -4.62359e-20 0)
(1.08656 -4.57563e-20 0)
(1.08622 -4.52805e-20 0)
(1.08587 -4.48085e-20 0)
(1.08552 -4.43401e-20 0)
(1.08517 -4.38755e-20 0)
(1.08481 -4.34145e-20 0)
(1.08445 -4.29572e-20 0)
(1.08409 -4.25036e-20 0)
(1.08373 -4.20536e-20 0)
(1.08336 -4.16072e-20 0)
(1.08299 -4.11644e-20 0)
(1.08262 -4.07253e-20 0)
(1.08224 -4.02897e-20 0)
(1.08187 -3.98577e-20 0)
(1.08148 -3.94292e-20 0)
(1.0811 -3.90043e-20 0)
(1.08071 -3.85829e-20 0)
(1.08032 -3.8165e-20 0)
(1.07993 -3.77506e-20 0)
(1.07953 -3.73397e-20 0)
(1.07913 -3.69323e-20 0)
(1.07873 -3.65283e-20 0)
(1.07833 -3.61277e-20 0)
(1.07792 -3.57306e-20 0)
(1.07751 -3.53368e-20 0)
(1.07709 -3.49465e-20 0)
(1.07668 -3.45595e-20 0)
(1.07626 -3.41759e-20 0)
(1.07583 -3.37956e-20 0)
(1.07541 -3.34187e-20 0)
(1.07498 -3.30451e-20 0)
(1.07455 -3.26747e-20 0)
(1.07411 -3.23077e-20 0)
(1.07368 -3.19439e-20 0)
(1.07324 -3.15834e-20 0)
(1.07279 -3.12261e-20 0)
(1.07235 -3.0872e-20 0)
(1.0719 -3.05211e-20 0)
(1.07144 -3.01734e-20 0)
(1.07099 -2.98289e-20 0)
(1.07053 -2.94876e-20 0)
(1.07007 -2.91493e-20 0)
(1.0696 -2.88142e-20 0)
(1.06914 -2.84822e-20 0)
(1.06867 -2.81533e-20 0)
(1.06819 -2.78275e-20 0)
(1.06772 -2.75048e-20 0)
(1.06724 -2.7185e-20 0)
(1.06675 -2.68683e-20 0)
(1.06627 -2.65546e-20 0)
(1.06578 -2.62439e-20 0)
(1.06529 -2.59362e-20 0)
(1.06479 -2.56315e-20 0)
(1.0643 -2.53297e-20 0)
(1.0638 -2.50308e-20 0)
(1.06329 -2.47348e-20 0)
(1.06279 -2.44417e-20 0)
(1.06228 -2.41515e-20 0)
(1.06177 -2.38642e-20 0)
(1.06125 -2.35797e-20 0)
(1.06074 -2.3298e-20 0)
(1.06022 -2.30192e-20 0)
(1.05969 -2.27431e-20 0)
(1.05917 -2.24698e-20 0)
(1.05864 -2.21993e-20 0)
(1.0581 -2.19315e-20 0)
(1.05757 -2.16664e-20 0)
(1.05703 -2.14041e-20 0)
(1.05649 -2.11444e-20 0)
(1.05595 -2.08874e-20 0)
(1.0554 -2.06331e-20 0)
(1.05485 -2.03814e-20 0)
(1.0543 -2.01324e-20 0)
(1.05374 -1.98859e-20 0)
(1.05319 -1.9642e-20 0)
(1.05263 -1.94007e-20 0)
(1.05206 -1.9162e-20 0)
(1.0515 -1.89258e-20 0)
(1.05093 -1.86921e-20 0)
(1.05035 -1.84609e-20 0)
(1.04978 -1.82322e-20 0)
(1.0492 -1.8006e-20 0)
(1.04862 -1.77822e-20 0)
(1.04804 -1.75608e-20 0)
(1.04745 -1.73419e-20 0)
(1.04687 -1.71254e-20 0)
(1.04627 -1.69112e-20 0)
(1.04568 -1.66994e-20 0)
(1.04508 -1.64899e-20 0)
(1.04448 -1.62828e-20 0)
(1.04388 -1.6078e-20 0)
(1.04328 -1.58755e-20 0)
(1.04267 -1.56752e-20 0)
(1.04206 -1.54772e-20 0)
(1.04145 -1.52815e-20 0)
(1.04083 -1.5088e-20 0)
(1.04021 -1.48966e-20 0)
(1.03959 -1.47075e-20 0)
(1.03897 -1.45205e-20 0)
(1.03834 -1.43357e-20 0)
(1.03772 -1.4153e-20 0)
(1.03708 -1.39725e-20 0)
(1.03645 -1.3794e-20 0)
(1.03581 -1.36176e-20 0)
(1.03518 -1.34433e-20 0)
(1.03453 -1.3271e-20 0)
(1.03389 -1.31008e-20 0)
(1.03324 -1.29325e-20 0)
(1.03259 -1.27663e-20 0)
(1.03194 -1.2602e-20 0)
(1.03129 -1.24397e-20 0)
(1.03063 -1.22794e-20 0)
(1.02997 -1.2121e-20 0)
(1.02931 -1.19644e-20 0)
(1.02865 -1.18098e-20 0)
(1.02798 -1.16571e-20 0)
(1.02731 -1.15062e-20 0)
(1.02664 -1.13571e-20 0)
(1.02596 -1.12099e-20 0)
(1.02529 -1.10644e-20 0)
(1.02461 -1.09208e-20 0)
(1.02393 -1.07789e-20 0)
(1.02324 -1.06388e-20 0)
(1.02256 -1.05004e-20 0)
(1.02187 -1.03638e-20 0)
(1.02118 -1.02288e-20 0)
(1.02048 -1.00956e-20 0)
(1.01978 -9.96399e-21 0)
(1.01909 -9.83406e-21 0)
(1.01838 -9.70576e-21 0)
(1.01768 -9.57909e-21 0)
(1.01697 -9.45403e-21 0)
(1.01626 -9.33055e-21 0)
(1.01555 -9.20865e-21 0)
(1.01484 -9.08831e-21 0)
(1.01412 -8.96951e-21 0)
(1.0134 -8.85223e-21 0)
(1.01268 -8.73647e-21 0)
(1.01196 -8.62219e-21 0)
(1.01123 -8.5094e-21 0)
(1.0105 -8.39807e-21 0)
(1.00977 -8.28818e-21 0)
(1.00904 -8.17973e-21 0)
(1.0083 -8.07269e-21 0)
(1.00756 -7.96706e-21 0)
(1.00682 -7.86281e-21 0)
(1.00608 -7.75993e-21 0)
(1.00533 -7.6584e-21 0)
(1.00458 -7.55822e-21 0)
(1.00383 -7.45936e-21 0)
(1.00308 -7.36182e-21 0)
(1.00232 -7.26557e-21 0)
(1.00156 -7.1706e-21 0)
(1.0008 -7.07689e-21 0)
(1.00004 -6.98445e-21 0)
(0.999271 -6.89323e-21 0)
(0.998501 -6.80325e-21 0)
(0.997729 -6.71447e-21 0)
(0.996954 -6.62689e-21 0)
(0.996176 -6.5405e-21 0)
(0.995396 -6.45527e-21 0)
(0.994613 -6.37119e-21 0)
(0.993827 -6.28826e-21 0)
(0.993038 -6.20646e-21 0)
(0.992247 -6.12577e-21 0)
(0.991453 -6.04618e-21 0)
(0.990656 -5.96768e-21 0)
(0.989856 -5.89026e-21 0)
(0.989053 -5.8139e-21 0)
(0.988248 -5.73858e-21 0)
(0.987439 -5.66431e-21 0)
(0.986628 -5.59106e-21 0)
(0.985813 -5.51882e-21 0)
(0.984996 -5.44758e-21 0)
(0.984175 -5.37732e-21 0)
(0.983352 -5.30805e-21 0)
(0.982525 -5.23973e-21 0)
(0.981695 -5.17237e-21 0)
(0.980862 -5.10594e-21 0)
(0.980026 -5.04045e-21 0)
(0.979187 -4.97587e-21 0)
(0.978344 -4.91219e-21 0)
(0.977498 -4.84941e-21 0)
(0.976649 -4.78751e-21 0)
(0.975796 -4.72648e-21 0)
(0.97494 -4.6663e-21 0)
(0.97408 -4.60698e-21 0)
(0.973217 -4.5485e-21 0)
(0.97235 -4.49084e-21 0)
(0.97148 -4.434e-21 0)
(0.970606 -4.37797e-21 0)
(0.969728 -4.32273e-21 0)
(0.968847 -4.26828e-21 0)
(0.967962 -4.2146e-21 0)
(0.967073 -4.16169e-21 0)
(0.96618 -4.10953e-21 0)
(0.965283 -4.05812e-21 0)
(0.964382 -4.00745e-21 0)
(0.963476 -3.9575e-21 0)
(0.962567 -3.90827e-21 0)
(0.961654 -3.85975e-21 0)
(0.960736 -3.81192e-21 0)
(0.959814 -3.76478e-21 0)
(0.958887 -3.71833e-21 0)
(0.957957 -3.67254e-21 0)
(0.957021 -3.62742e-21 0)
(0.956081 -3.58294e-21 0)
(0.955136 -3.53912e-21 0)
(0.954187 -3.49593e-21 0)
(0.953232 -3.45336e-21 0)
(0.952273 -3.41142e-21 0)
(0.951309 -3.37009e-21 0)
(0.950339 -3.32936e-21 0)
(0.949365 -3.28922e-21 0)
(0.948385 -3.24967e-21 0)
(0.9474 -3.2107e-21 0)
(0.946409 -3.1723e-21 0)
(0.945413 -3.13447e-21 0)
(0.944411 -3.09719e-21 0)
(0.943403 -3.06046e-21 0)
(0.94239 -3.02426e-21 0)
(0.941371 -2.98861e-21 0)
(0.940345 -2.95347e-21 0)
(0.939314 -2.91886e-21 0)
(0.938276 -2.88476e-21 0)
(0.937232 -2.85116e-21 0)
(0.936181 -2.81807e-21 0)
(0.935124 -2.78546e-21 0)
(0.934059 -2.75334e-21 0)
(0.932988 -2.72169e-21 0)
(0.93191 -2.69052e-21 0)
(0.930825 -2.65981e-21 0)
(0.929732 -2.62956e-21 0)
(0.928632 -2.59977e-21 0)
(0.927524 -2.57042e-21 0)
(0.926409 -2.54151e-21 0)
(0.925285 -2.51303e-21 0)
(0.924154 -2.48498e-21 0)
(0.923014 -2.45735e-21 0)
(0.921866 -2.43014e-21 0)
(0.920709 -2.40334e-21 0)
(0.919544 -2.37694e-21 0)
(0.918369 -2.35094e-21 0)
(0.917185 -2.32534e-21 0)
(0.915992 -2.30012e-21 0)
(0.91479 -2.27529e-21 0)
(0.913577 -2.25083e-21 0)
(0.912354 -2.22674e-21 0)
(0.911122 -2.20302e-21 0)
(0.909878 -2.17966e-21 0)
(0.908625 -2.15666e-21 0)
(0.90736 -2.13401e-21 0)
(0.906083 -2.1117e-21 0)
(0.904796 -2.08974e-21 0)
(0.903496 -2.06811e-21 0)
(0.902185 -2.04681e-21 0)
(0.900861 -2.02584e-21 0)
(0.899525 -2.00519e-21 0)
(0.898175 -1.98486e-21 0)
(0.896813 -1.96484e-21 0)
(0.895436 -1.94513e-21 0)
(0.894046 -1.92572e-21 0)
(0.892642 -1.90661e-21 0)
(0.891222 -1.8878e-21 0)
(0.889788 -1.86927e-21 0)
(0.888338 -1.85103e-21 0)
(0.886872 -1.83307e-21 0)
(0.88539 -1.81539e-21 0)
(0.883891 -1.79798e-21 0)
(0.882375 -1.78084e-21 0)
(0.880841 -1.76396e-21 0)
(0.879288 -1.74734e-21 0)
(0.877717 -1.73098e-21 0)
(0.876126 -1.71487e-21 0)
(0.874516 -1.699e-21 0)
(0.872885 -1.68338e-21 0)
(0.871232 -1.668e-21 0)
(0.869558 -1.65285e-21 0)
(0.867862 -1.63793e-21 0)
(0.866142 -1.62324e-21 0)
(0.864398 -1.60877e-21 0)
(0.862629 -1.59452e-21 0)
(0.860834 -1.58049e-21 0)
(0.859013 -1.56666e-21 0)
(0.857165 -1.55304e-21 0)
(0.855288 -1.53962e-21 0)
(0.853382 -1.5264e-21 0)
(0.851445 -1.51337e-21 0)
(0.849477 -1.50053e-21 0)
(0.847476 -1.48787e-21 0)
(0.845441 -1.4754e-21 0)
(0.84337 -1.4631e-21 0)
(0.841263 -1.45097e-21 0)
(0.839118 -1.43901e-21 0)
(0.836932 -1.4272e-21 0)
(0.834705 -1.41556e-21 0)
(0.832435 -1.40406e-21 0)
(0.83012 -1.39272e-21 0)
(0.827758 -1.38151e-21 0)
(0.825346 -1.37044e-21 0)
(0.822883 -1.3595e-21 0)
(0.820365 -1.34869e-21 0)
(0.817791 -1.33799e-21 0)
(0.815157 -1.3274e-21 0)
(0.812461 -1.31692e-21 0)
(0.809699 -1.30654e-21 0)
(0.806867 -1.29625e-21 0)
(0.803962 -1.28605e-21 0)
(0.80098 -1.27592e-21 0)
(0.797916 -1.26585e-21 0)
(0.794765 -1.25585e-21 0)
(0.791522 -1.24589e-21 0)
(0.78818 -1.23596e-21 0)
(0.784735 -1.22607e-21 0)
(0.781177 -1.21619e-21 0)
(0.7775 -1.2063e-21 0)
(0.773695 -1.1964e-21 0)
(0.769752 -1.18648e-21 0)
(0.76566 -1.1765e-21 0)
(0.761407 -1.16645e-21 0)
(0.75698 -1.15631e-21 0)
(0.752363 -1.14606e-21 0)
(0.747539 -1.13567e-21 0)
(0.742487 -1.1251e-21 0)
(0.737185 -1.11432e-21 0)
(0.731605 -1.10329e-21 0)
(0.725717 -1.09196e-21 0)
(0.719483 -1.08027e-21 0)
(0.712859 -1.06816e-21 0)
(0.705794 -1.05555e-21 0)
(0.698222 -1.04234e-21 0)
(0.690066 -1.02841e-21 0)
(0.681227 -1.01362e-21 0)
(0.67158 -9.97776e-22 0)
(0.660962 -9.80641e-22 0)
(0.649157 -9.61893e-22 0)
(0.63587 -9.41092e-22 0)
(0.620682 -9.17619e-22 0)
(0.602971 -8.90555e-22 0)
(0.581765 -8.58465e-22 0)
(0.555426 -8.18933e-22 0)
(0.520902 -7.67459e-22 0)
(0.471629 -6.94379e-22 0)
(0.389958 -5.73724e-22 0)
(0.215353 -3.16517e-22 0)
)
;

boundaryField
{
    top_wall
    {
        type            noSlip;
    }
    inlet
    {
        type            cyclic;
    }
    bot_wall
    {
        type            noSlip;
    }
    outlet
    {
        type            cyclic;
    }
    frontAndBack
    {
        type            empty;
    }
}


// ************************************************************************* //
