/*--------------------------------*- C++ -*----------------------------------*\
| =========                 |                                                 |
| \\      /  F ield         | OpenFOAM: The Open Source CFD Toolbox           |
|  \\    /   O peration     | Version:  2312                                  |
|   \\  /    A nd           | Website:  www.openfoam.com                      |
|    \\/     M anipulation  |                                                 |
\*---------------------------------------------------------------------------*/
FoamFile
{
    version     2.0;
    format      ascii;
    arch        "LSB;label=32;scalar=64";
    class       volScalarField;
    location    "20.71";
    object      k;
}
// * * * * * * * * * * * * * * * * * * * * * * * * * * * * * * * * * * * * * //

dimensions      [0 2 -2 0 0 0 0];

internalField   nonuniform List<scalar> 
2000
(
1.85954e-05
1.12617e-05
6.06875e-05
0.000213049
0.000524492
0.00101568
0.00164478
0.00232799
0.00298869
0.00358345
0.00409822
0.00453543
0.00490417
0.00521504
0.00547796
0.00570139
0.00589233
0.00605645
0.00619828
0.00632151
0.00642909
0.00652342
0.00660646
0.00667981
0.00674479
0.0068025
0.00685388
0.00689969
0.00694058
0.00697712
0.00700979
0.00703898
0.00706507
0.00708835
0.00710909
0.00712753
0.00714387
0.0071583
0.00717097
0.00718204
0.00719162
0.00719983
0.00720677
0.00721253
0.0072172
0.00722085
0.00722354
0.00722535
0.00722632
0.0072265
0.00722595
0.0072247
0.0072228
0.00722027
0.00721716
0.00721349
0.00720929
0.00720459
0.00719941
0.00719378
0.0071877
0.00718122
0.00717433
0.00716707
0.00715944
0.00715146
0.00714314
0.0071345
0.00712555
0.00711631
0.00710677
0.00709696
0.00708687
0.00707653
0.00706594
0.00705511
0.00704405
0.00703276
0.00702124
0.00700952
0.00699759
0.00698546
0.00697314
0.00696063
0.00694794
0.00693506
0.00692202
0.00690881
0.00689543
0.0068819
0.00686821
0.00685437
0.00684038
0.00682625
0.00681198
0.00679758
0.00678304
0.00676837
0.00675358
0.00673866
0.00672362
0.00670847
0.0066932
0.00667783
0.00666234
0.00664674
0.00663105
0.00661525
0.00659935
0.00658336
0.00656727
0.00655109
0.00653482
0.00651846
0.00650202
0.0064855
0.00646889
0.0064522
0.00643544
0.0064186
0.00640169
0.0063847
0.00636765
0.00635052
0.00633333
0.00631608
0.00629876
0.00628138
0.00626394
0.00624644
0.00622889
0.00621128
0.00619362
0.0061759
0.00615813
0.00614032
0.00612245
0.00610454
0.00608659
0.00606859
0.00605055
0.00603247
0.00601435
0.00599619
0.00597799
0.00595976
0.0059415
0.0059232
0.00590487
0.00588651
0.00586812
0.0058497
0.00583125
0.00581278
0.00579429
0.00577577
0.00575723
0.00573867
0.00572009
0.00570149
0.00568288
0.00566424
0.0056456
0.00562693
0.00560826
0.00558957
0.00557087
0.00555216
0.00553345
0.00551472
0.00549599
0.00547725
0.00545851
0.00543976
0.00542101
0.00540226
0.00538351
0.00536476
0.00534601
0.00532726
0.00530851
0.00528977
0.00527103
0.0052523
0.00523358
0.00521486
0.00519615
0.00517746
0.00515877
0.00514009
0.00512142
0.00510277
0.00508413
0.00506551
0.0050469
0.00502831
0.00500973
0.00499117
0.00497263
0.00495411
0.00493561
0.00491713
0.00489868
0.00488024
0.00486183
0.00484345
0.00482508
0.00480675
0.00478844
0.00477015
0.0047519
0.00473367
0.00471548
0.00469731
0.00467917
0.00466107
0.00464299
0.00462495
0.00460695
0.00458897
0.00457103
0.00455313
0.00453526
0.00451743
0.00449964
0.00448189
0.00446417
0.00444649
0.00442885
0.00441126
0.0043937
0.00437618
0.00435871
0.00434128
0.00432389
0.00430655
0.00428925
0.00427199
0.00425478
0.00423762
0.0042205
0.00420343
0.00418641
0.00416944
0.00415251
0.00413563
0.00411881
0.00410203
0.0040853
0.00406863
0.004052
0.00403543
0.00401891
0.00400244
0.00398602
0.00396966
0.00395335
0.0039371
0.0039209
0.00390476
0.00388867
0.00387264
0.00385667
0.00384075
0.00382489
0.00380908
0.00379334
0.00377765
0.00376202
0.00374645
0.00373094
0.00371549
0.0037001
0.00368477
0.0036695
0.00365429
0.00363914
0.00362406
0.00360903
0.00359407
0.00357917
0.00356433
0.00354956
0.00353485
0.0035202
0.00350562
0.0034911
0.00347664
0.00346225
0.00344792
0.00343366
0.00341946
0.00340533
0.00339127
0.00337727
0.00336333
0.00334947
0.00333566
0.00332193
0.00330826
0.00329466
0.00328113
0.00326766
0.00325426
0.00324093
0.00322766
0.00321447
0.00320134
0.00318828
0.00317528
0.00316236
0.00314951
0.00313672
0.003124
0.00311135
0.00309877
0.00308626
0.00307382
0.00306144
0.00304914
0.0030369
0.00302474
0.00301264
0.00300061
0.00298866
0.00297677
0.00296495
0.0029532
0.00294153
0.00292992
0.00291838
0.00290691
0.00289551
0.00288418
0.00287292
0.00286173
0.00285061
0.00283956
0.00282858
0.00281767
0.00280683
0.00279605
0.00278535
0.00277472
0.00276416
0.00275367
0.00274324
0.00273289
0.00272261
0.00271239
0.00270225
0.00269217
0.00268216
0.00267222
0.00266236
0.00265256
0.00264283
0.00263316
0.00262357
0.00261404
0.00260459
0.0025952
0.00258588
0.00257663
0.00256744
0.00255833
0.00254928
0.0025403
0.00253139
0.00252254
0.00251376
0.00250505
0.00249641
0.00248783
0.00247932
0.00247088
0.0024625
0.00245419
0.00244594
0.00243776
0.00242965
0.0024216
0.00241361
0.00240569
0.00239784
0.00239005
0.00238233
0.00237467
0.00236707
0.00235954
0.00235207
0.00234466
0.00233732
0.00233004
0.00232282
0.00231567
0.00230858
0.00230155
0.00229458
0.00228767
0.00228083
0.00227404
0.00226732
0.00226066
0.00225405
0.00224751
0.00224103
0.00223461
0.00222824
0.00222194
0.00221569
0.00220951
0.00220338
0.00219731
0.00219129
0.00218534
0.00217944
0.0021736
0.00216781
0.00216208
0.00215641
0.00215079
0.00214523
0.00213972
0.00213427
0.00212887
0.00212352
0.00211823
0.002113
0.00210781
0.00210268
0.00209761
0.00209258
0.00208761
0.00208268
0.00207781
0.00207299
0.00206823
0.00206351
0.00205884
0.00205422
0.00204965
0.00204513
0.00204066
0.00203624
0.00203186
0.00202753
0.00202325
0.00201902
0.00201484
0.0020107
0.0020066
0.00200256
0.00199856
0.0019946
0.00199069
0.00198682
0.001983
0.00197922
0.00197548
0.00197179
0.00196814
0.00196453
0.00196096
0.00195744
0.00195396
0.00195052
0.00194712
0.00194376
0.00194044
0.00193715
0.00193391
0.00193071
0.00192755
0.00192442
0.00192134
0.00191829
0.00191528
0.0019123
0.00190937
0.00190646
0.0019036
0.00190077
0.00189798
0.00189522
0.00189249
0.00188981
0.00188715
0.00188453
0.00188194
0.00187939
0.00187686
0.00187437
0.00187192
0.00186949
0.0018671
0.00186474
0.00186241
0.0018601
0.00185783
0.00185559
0.00185338
0.0018512
0.00184905
0.00184693
0.00184483
0.00184277
0.00184073
0.00183872
0.00183673
0.00183478
0.00183285
0.00183094
0.00182907
0.00182721
0.00182539
0.00182359
0.00182181
0.00182006
0.00181834
0.00181664
0.00181496
0.0018133
0.00181167
0.00181006
0.00180848
0.00180692
0.00180538
0.00180386
0.00180236
0.00180089
0.00179944
0.001798
0.00179659
0.0017952
0.00179383
0.00179248
0.00179115
0.00178984
0.00178855
0.00178727
0.00178602
0.00178478
0.00178357
0.00178237
0.00178119
0.00178002
0.00177888
0.00177775
0.00177664
0.00177554
0.00177446
0.0017734
0.00177236
0.00177133
0.00177031
0.00176932
0.00176833
0.00176736
0.00176641
0.00176547
0.00176455
0.00176364
0.00176275
0.00176186
0.001761
0.00176014
0.0017593
0.00175848
0.00175766
0.00175686
0.00175607
0.0017553
0.00175453
0.00175378
0.00175304
0.00175231
0.0017516
0.00175089
0.0017502
0.00174952
0.00174885
0.00174819
0.00174754
0.0017469
0.00174627
0.00174565
0.00174505
0.00174445
0.00174386
0.00174328
0.00174271
0.00174215
0.0017416
0.00174106
0.00174053
0.00174001
0.00173949
0.00173899
0.00173849
0.001738
0.00173752
0.00173705
0.00173658
0.00173612
0.00173567
0.00173523
0.0017348
0.00173437
0.00173395
0.00173354
0.00173313
0.00173274
0.00173234
0.00173196
0.00173158
0.00173121
0.00173084
0.00173049
0.00173013
0.00172979
0.00172945
0.00172911
0.00172878
0.00172846
0.00172814
0.00172783
0.00172752
0.00172722
0.00172693
0.00172664
0.00172635
0.00172607
0.0017258
0.00172553
0.00172526
0.001725
0.00172474
0.00172449
0.00172424
0.001724
0.00172376
0.00172353
0.0017233
0.00172307
0.00172285
0.00172264
0.00172242
0.00172221
0.00172201
0.0017218
0.00172161
0.00172141
0.00172122
0.00172103
0.00172085
0.00172067
0.00172049
0.00172032
0.00172014
0.00171998
0.00171981
0.00171965
0.00171949
0.00171934
0.00171918
0.00171903
0.00171889
0.00171874
0.0017186
0.00171846
0.00171832
0.00171819
0.00171806
0.00171793
0.0017178
0.00171768
0.00171756
0.00171744
0.00171732
0.00171721
0.00171709
0.00171698
0.00171687
0.00171677
0.00171666
0.00171656
0.00171646
0.00171636
0.00171627
0.00171617
0.00171608
0.00171599
0.0017159
0.00171581
0.00171573
0.00171564
0.00171556
0.00171548
0.0017154
0.00171532
0.00171525
0.00171517
0.0017151
0.00171503
0.00171496
0.00171489
0.00171482
0.00171475
0.00171469
0.00171462
0.00171456
0.0017145
0.00171444
0.00171438
0.00171432
0.00171427
0.00171421
0.00171416
0.0017141
0.00171405
0.001714
0.00171395
0.0017139
0.00171385
0.00171381
0.00171376
0.00171372
0.00171367
0.00171363
0.00171359
0.00171355
0.0017135
0.00171346
0.00171343
0.00171339
0.00171335
0.00171331
0.00171328
0.00171324
0.00171321
0.00171317
0.00171314
0.00171311
0.00171308
0.00171305
0.00171302
0.00171299
0.00171296
0.00171293
0.0017129
0.00171287
0.00171285
0.00171282
0.00171279
0.00171277
0.00171274
0.00171272
0.0017127
0.00171267
0.00171265
0.00171263
0.00171261
0.00171259
0.00171256
0.00171254
0.00171252
0.0017125
0.00171249
0.00171247
0.00171245
0.00171243
0.00171241
0.0017124
0.00171238
0.00171236
0.00171235
0.00171233
0.00171232
0.0017123
0.00171229
0.00171227
0.00171226
0.00171224
0.00171223
0.00171222
0.0017122
0.00171219
0.00171218
0.00171217
0.00171216
0.00171214
0.00171213
0.00171212
0.00171211
0.0017121
0.00171209
0.00171208
0.00171207
0.00171206
0.00171205
0.00171204
0.00171203
0.00171202
0.00171202
0.00171201
0.001712
0.00171199
0.00171198
0.00171198
0.00171197
0.00171196
0.00171195
0.00171195
0.00171194
0.00171193
0.00171193
0.00171192
0.00171191
0.00171191
0.0017119
0.0017119
0.00171189
0.00171188
0.00171188
0.00171187
0.00171187
0.00171186
0.00171186
0.00171185
0.00171185
0.00171184
0.00171184
0.00171184
0.00171183
0.00171183
0.00171182
0.00171182
0.00171181
0.00171181
0.00171181
0.0017118
0.0017118
0.0017118
0.00171179
0.00171179
0.00171179
0.00171178
0.00171178
0.00171178
0.00171177
0.00171177
0.00171177
0.00171176
0.00171176
0.00171176
0.00171176
0.00171175
0.00171175
0.00171175
0.00171175
0.00171174
0.00171174
0.00171174
0.00171174
0.00171174
0.00171173
0.00171173
0.00171173
0.00171173
0.00171173
0.00171172
0.00171172
0.00171172
0.00171172
0.00171172
0.00171172
0.00171171
0.00171171
0.00171171
0.00171171
0.00171171
0.00171171
0.00171171
0.0017117
0.0017117
0.0017117
0.0017117
0.0017117
0.0017117
0.0017117
0.0017117
0.0017117
0.00171169
0.00171169
0.00171169
0.00171169
0.00171169
0.00171169
0.00171169
0.00171169
0.00171169
0.00171169
0.00171168
0.00171168
0.00171168
0.00171168
0.00171168
0.00171168
0.00171168
0.00171168
0.00171168
0.00171168
0.00171168
0.00171168
0.00171168
0.00171168
0.00171168
0.00171167
0.00171167
0.00171167
0.00171167
0.00171167
0.00171167
0.00171167
0.00171167
0.00171167
0.00171167
0.00171167
0.00171167
0.00171167
0.00171167
0.00171167
0.00171167
0.00171167
0.00171167
0.00171167
0.00171167
0.00171167
0.00171167
0.00171167
0.00171167
0.00171167
0.00171166
0.00171166
0.00171166
0.00171166
0.00171166
0.00171166
0.00171166
0.00171166
0.00171166
0.00171166
0.00171166
0.00171166
0.00171166
0.00171166
0.00171166
0.00171166
0.00171166
0.00171166
0.00171166
0.00171166
0.00171166
0.00171166
0.00171166
0.00171166
0.00171166
0.00171166
0.00171166
0.00171166
0.00171166
0.00171166
0.00171166
0.00171166
0.00171166
0.00171166
0.00171166
0.00171166
0.00171166
0.00171166
0.00171166
0.00171166
0.00171166
0.00171166
0.00171166
0.00171166
0.00171166
0.00171166
0.00171166
0.00171166
0.00171166
0.00171166
0.00171166
0.00171166
0.00171166
0.00171166
0.00171166
0.00171166
0.00171166
0.00171166
0.00171166
0.00171166
0.00171166
0.00171166
0.00171166
0.00171166
0.00171166
0.00171166
0.00171166
0.00171166
0.00171166
0.00171166
0.00171166
0.00171166
0.00171166
0.00171166
0.00171166
0.00171166
0.00171166
0.00171166
0.00171166
0.00171166
0.00171166
0.00171166
0.00171166
0.00171166
0.00171166
0.00171166
0.00171166
0.00171166
0.00171166
0.00171166
0.00171166
0.00171166
0.00171166
0.00171166
0.00171166
0.00171166
0.00171166
0.00171167
0.00171167
0.00171167
0.00171167
0.00171167
0.00171167
0.00171167
0.00171167
0.00171167
0.00171167
0.00171167
0.00171167
0.00171167
0.00171167
0.00171167
0.00171167
0.00171167
0.00171167
0.00171167
0.00171167
0.00171167
0.00171167
0.00171167
0.00171167
0.00171167
0.00171167
0.00171167
0.00171167
0.00171167
0.00171167
0.00171168
0.00171168
0.00171168
0.00171168
0.00171168
0.00171168
0.00171168
0.00171168
0.00171168
0.00171168
0.00171168
0.00171168
0.00171168
0.00171168
0.00171168
0.00171168
0.00171168
0.00171169
0.00171169
0.00171169
0.00171169
0.00171169
0.00171169
0.00171169
0.00171169
0.00171169
0.00171169
0.00171169
0.00171169
0.00171169
0.0017117
0.0017117
0.0017117
0.0017117
0.0017117
0.0017117
0.0017117
0.0017117
0.0017117
0.0017117
0.00171171
0.00171171
0.00171171
0.00171171
0.00171171
0.00171171
0.00171171
0.00171172
0.00171172
0.00171172
0.00171172
0.00171172
0.00171172
0.00171172
0.00171173
0.00171173
0.00171173
0.00171173
0.00171173
0.00171173
0.00171174
0.00171174
0.00171174
0.00171174
0.00171174
0.00171175
0.00171175
0.00171175
0.00171175
0.00171176
0.00171176
0.00171176
0.00171176
0.00171177
0.00171177
0.00171177
0.00171177
0.00171178
0.00171178
0.00171178
0.00171179
0.00171179
0.00171179
0.00171179
0.0017118
0.0017118
0.00171181
0.00171181
0.00171181
0.00171182
0.00171182
0.00171182
0.00171183
0.00171183
0.00171184
0.00171184
0.00171184
0.00171185
0.00171185
0.00171186
0.00171186
0.00171187
0.00171187
0.00171188
0.00171188
0.00171189
0.00171189
0.0017119
0.00171191
0.00171191
0.00171192
0.00171192
0.00171193
0.00171194
0.00171194
0.00171195
0.00171196
0.00171196
0.00171197
0.00171198
0.00171199
0.00171199
0.001712
0.00171201
0.00171202
0.00171203
0.00171203
0.00171204
0.00171205
0.00171206
0.00171207
0.00171208
0.00171209
0.0017121
0.00171211
0.00171212
0.00171213
0.00171214
0.00171216
0.00171217
0.00171218
0.00171219
0.0017122
0.00171222
0.00171223
0.00171224
0.00171225
0.00171227
0.00171228
0.0017123
0.00171231
0.00171233
0.00171234
0.00171236
0.00171237
0.00171239
0.00171241
0.00171242
0.00171244
0.00171246
0.00171248
0.0017125
0.00171252
0.00171253
0.00171255
0.00171258
0.0017126
0.00171262
0.00171264
0.00171266
0.00171268
0.00171271
0.00171273
0.00171275
0.00171278
0.0017128
0.00171283
0.00171286
0.00171288
0.00171291
0.00171294
0.00171297
0.001713
0.00171303
0.00171306
0.00171309
0.00171312
0.00171315
0.00171319
0.00171322
0.00171325
0.00171329
0.00171333
0.00171336
0.0017134
0.00171344
0.00171348
0.00171352
0.00171356
0.0017136
0.00171364
0.00171369
0.00171373
0.00171378
0.00171382
0.00171387
0.00171392
0.00171397
0.00171402
0.00171407
0.00171412
0.00171417
0.00171423
0.00171428
0.00171434
0.0017144
0.00171445
0.00171451
0.00171458
0.00171464
0.0017147
0.00171477
0.00171483
0.0017149
0.00171497
0.00171504
0.00171511
0.00171519
0.00171526
0.00171534
0.00171541
0.00171549
0.00171558
0.00171566
0.00171574
0.00171583
0.00171592
0.001716
0.0017161
0.00171619
0.00171628
0.00171638
0.00171648
0.00171658
0.00171668
0.00171679
0.00171689
0.001717
0.00171711
0.00171722
0.00171734
0.00171746
0.00171757
0.0017177
0.00171782
0.00171795
0.00171808
0.00171821
0.00171834
0.00171848
0.00171862
0.00171876
0.0017189
0.00171905
0.0017192
0.00171935
0.00171951
0.00171967
0.00171983
0.00171999
0.00172016
0.00172033
0.00172051
0.00172069
0.00172087
0.00172105
0.00172124
0.00172143
0.00172162
0.00172182
0.00172202
0.00172223
0.00172244
0.00172265
0.00172287
0.00172309
0.00172332
0.00172355
0.00172378
0.00172402
0.00172426
0.00172451
0.00172476
0.00172502
0.00172528
0.00172554
0.00172581
0.00172609
0.00172637
0.00172666
0.00172695
0.00172724
0.00172754
0.00172785
0.00172816
0.00172848
0.0017288
0.00172913
0.00172946
0.0017298
0.00173015
0.0017305
0.00173086
0.00173123
0.0017316
0.00173198
0.00173236
0.00173275
0.00173315
0.00173356
0.00173397
0.00173439
0.00173482
0.00173525
0.00173569
0.00173614
0.0017366
0.00173706
0.00173754
0.00173802
0.00173851
0.001739
0.00173951
0.00174003
0.00174055
0.00174108
0.00174162
0.00174217
0.00174273
0.0017433
0.00174388
0.00174447
0.00174507
0.00174567
0.00174629
0.00174692
0.00174756
0.00174821
0.00174887
0.00174954
0.00175022
0.00175091
0.00175162
0.00175233
0.00175306
0.0017538
0.00175455
0.00175532
0.00175609
0.00175688
0.00175768
0.0017585
0.00175932
0.00176016
0.00176102
0.00176188
0.00176277
0.00176366
0.00176457
0.00176549
0.00176643
0.00176738
0.00176835
0.00176934
0.00177033
0.00177135
0.00177238
0.00177342
0.00177448
0.00177556
0.00177666
0.00177777
0.0017789
0.00178004
0.00178121
0.00178239
0.00178359
0.0017848
0.00178604
0.00178729
0.00178857
0.00178986
0.00179117
0.0017925
0.00179385
0.00179522
0.00179661
0.00179802
0.00179946
0.00180091
0.00180238
0.00180388
0.0018054
0.00180694
0.0018085
0.00181008
0.00181169
0.00181332
0.00181498
0.00181666
0.00181836
0.00182008
0.00182183
0.00182361
0.00182541
0.00182723
0.00182909
0.00183096
0.00183287
0.0018348
0.00183675
0.00183874
0.00184075
0.00184279
0.00184485
0.00184695
0.00184907
0.00185122
0.0018534
0.00185561
0.00185785
0.00186012
0.00186242
0.00186476
0.00186712
0.00186951
0.00187194
0.00187439
0.00187688
0.0018794
0.00188196
0.00188455
0.00188717
0.00188982
0.00189251
0.00189524
0.001898
0.00190079
0.00190362
0.00190648
0.00190938
0.00191232
0.0019153
0.00191831
0.00192136
0.00192444
0.00192757
0.00193073
0.00193393
0.00193717
0.00194045
0.00194377
0.00194713
0.00195053
0.00195397
0.00195746
0.00196098
0.00196455
0.00196815
0.0019718
0.0019755
0.00197923
0.00198301
0.00198684
0.0019907
0.00199462
0.00199857
0.00200257
0.00200662
0.00201071
0.00201485
0.00201904
0.00202327
0.00202755
0.00203188
0.00203625
0.00204067
0.00204515
0.00204967
0.00205424
0.00205885
0.00206352
0.00206824
0.00207301
0.00207783
0.0020827
0.00208762
0.00209259
0.00209762
0.0021027
0.00210783
0.00211301
0.00211825
0.00212354
0.00212888
0.00213428
0.00213973
0.00214524
0.0021508
0.00215642
0.00216209
0.00216782
0.00217361
0.00217945
0.00218535
0.00219131
0.00219732
0.00220339
0.00220952
0.00221571
0.00222195
0.00222826
0.00223462
0.00224104
0.00224752
0.00225407
0.00226067
0.00226733
0.00227405
0.00228084
0.00228768
0.00229459
0.00230156
0.00230859
0.00231568
0.00232283
0.00233005
0.00233733
0.00234467
0.00235208
0.00235955
0.00236708
0.00237468
0.00238234
0.00239006
0.00239785
0.00240571
0.00241362
0.00242161
0.00242966
0.00243777
0.00244595
0.0024542
0.00246251
0.00247089
0.00247933
0.00248784
0.00249642
0.00250506
0.00251377
0.00252255
0.0025314
0.00254031
0.00254929
0.00255834
0.00256745
0.00257664
0.00258589
0.00259521
0.0026046
0.00261405
0.00262358
0.00263317
0.00264283
0.00265256
0.00266236
0.00267223
0.00268217
0.00269218
0.00270225
0.0027124
0.00272261
0.0027329
0.00274325
0.00275367
0.00276417
0.00277473
0.00278536
0.00279606
0.00280683
0.00281767
0.00282858
0.00283956
0.00285062
0.00286174
0.00287293
0.00288418
0.00289551
0.00290691
0.00291838
0.00292992
0.00294153
0.00295321
0.00296496
0.00297678
0.00298866
0.00300062
0.00301265
0.00302474
0.00303691
0.00304914
0.00306145
0.00307382
0.00308626
0.00309877
0.00311135
0.003124
0.00313672
0.00314951
0.00316236
0.00317529
0.00318828
0.00320134
0.00321447
0.00322767
0.00324093
0.00325426
0.00326766
0.00328113
0.00329466
0.00330826
0.00332193
0.00333567
0.00334947
0.00336334
0.00337727
0.00339127
0.00340534
0.00341947
0.00343366
0.00344792
0.00346225
0.00347664
0.0034911
0.00350562
0.0035202
0.00353485
0.00354956
0.00356433
0.00357917
0.00359407
0.00360903
0.00362406
0.00363914
0.00365429
0.0036695
0.00368477
0.0037001
0.00371549
0.00373094
0.00374645
0.00376202
0.00377765
0.00379334
0.00380908
0.00382489
0.00384075
0.00385667
0.00387264
0.00388867
0.00390476
0.0039209
0.0039371
0.00395336
0.00396966
0.00398602
0.00400244
0.00401891
0.00403543
0.004052
0.00406863
0.0040853
0.00410203
0.00411881
0.00413563
0.00415251
0.00416944
0.00418641
0.00420343
0.0042205
0.00423762
0.00425478
0.00427199
0.00428925
0.00430655
0.00432389
0.00434128
0.00435871
0.00437618
0.0043937
0.00441125
0.00442885
0.00444649
0.00446417
0.00448189
0.00449964
0.00451743
0.00453526
0.00455313
0.00457103
0.00458897
0.00460695
0.00462495
0.00464299
0.00466107
0.00467917
0.00469731
0.00471548
0.00473367
0.0047519
0.00477015
0.00478844
0.00480675
0.00482508
0.00484344
0.00486183
0.00488024
0.00489868
0.00491713
0.00493561
0.00495411
0.00497263
0.00499117
0.00500973
0.0050283
0.0050469
0.00506551
0.00508413
0.00510277
0.00512142
0.00514009
0.00515877
0.00517745
0.00519615
0.00521486
0.00523358
0.0052523
0.00527103
0.00528977
0.00530851
0.00532726
0.00534601
0.00536476
0.00538351
0.00540226
0.00542101
0.00543976
0.00545851
0.00547725
0.00549599
0.00551472
0.00553344
0.00555216
0.00557087
0.00558957
0.00560826
0.00562693
0.00564559
0.00566424
0.00568287
0.00570149
0.00572009
0.00573867
0.00575723
0.00577577
0.00579429
0.00581278
0.00583125
0.0058497
0.00586812
0.00588651
0.00590487
0.0059232
0.00594149
0.00595976
0.00597799
0.00599619
0.00601435
0.00603247
0.00605055
0.00606859
0.00608659
0.00610454
0.00612245
0.00614032
0.00615813
0.0061759
0.00619361
0.00621128
0.00622889
0.00624644
0.00626394
0.00628138
0.00629876
0.00631608
0.00633333
0.00635052
0.00636765
0.0063847
0.00640169
0.0064186
0.00643544
0.0064522
0.00646889
0.0064855
0.00650202
0.00651846
0.00653482
0.00655109
0.00656727
0.00658336
0.00659935
0.00661525
0.00663105
0.00664674
0.00666234
0.00667783
0.0066932
0.00670847
0.00672362
0.00673866
0.00675358
0.00676837
0.00678304
0.00679758
0.00681198
0.00682625
0.00684038
0.00685437
0.00686821
0.0068819
0.00689543
0.00690881
0.00692202
0.00693506
0.00694794
0.00696063
0.00697314
0.00698546
0.00699759
0.00700952
0.00702124
0.00703276
0.00704405
0.00705511
0.00706594
0.00707653
0.00708687
0.00709696
0.00710677
0.00711631
0.00712555
0.0071345
0.00714314
0.00715146
0.00715944
0.00716707
0.00717433
0.00718122
0.0071877
0.00719378
0.00719941
0.00720459
0.00720929
0.00721349
0.00721716
0.00722027
0.0072228
0.0072247
0.00722595
0.0072265
0.00722632
0.00722535
0.00722354
0.00722085
0.0072172
0.00721253
0.00720677
0.00719983
0.00719162
0.00718204
0.00717098
0.0071583
0.00714387
0.00712753
0.00710909
0.00708835
0.00706507
0.00703899
0.00700979
0.00697712
0.00694058
0.00689969
0.00685388
0.0068025
0.00674479
0.00667981
0.00660646
0.00652342
0.00642909
0.00632151
0.00619828
0.00605645
0.00589234
0.00570139
0.00547796
0.00521505
0.00490417
0.00453543
0.00409822
0.00358345
0.00298869
0.00232799
0.00164478
0.00101568
0.000524492
0.000213049
6.06876e-05
1.12617e-05
1.85954e-05
)
;

boundaryField
{
    top_wall
    {
        type            kLowReWallFunction;
        value           uniform 4.22779e-10;
    }
    inlet
    {
        type            cyclic;
    }
    bot_wall
    {
        type            kLowReWallFunction;
        value           uniform 4.22779e-10;
    }
    outlet
    {
        type            cyclic;
    }
    frontAndBack
    {
        type            empty;
    }
}


// ************************************************************************* //
