/*--------------------------------*- C++ -*----------------------------------*\
| =========                 |                                                 |
| \\      /  F ield         | OpenFOAM: The Open Source CFD Toolbox           |
|  \\    /   O peration     | Version:  2312                                  |
|   \\  /    A nd           | Website:  www.openfoam.com                      |
|    \\/     M anipulation  |                                                 |
\*---------------------------------------------------------------------------*/
FoamFile
{
    version     2.0;
    format      ascii;
    arch        "LSB;label=32;scalar=64";
    class       volScalarField;
    location    "20.71";
    object      nut;
}
// * * * * * * * * * * * * * * * * * * * * * * * * * * * * * * * * * * * * * //

dimensions      [0 2 -1 0 0 0 0];

internalField   nonuniform List<scalar> 
2000
(
1.16221e-09
4.00629e-09
6.22791e-08
4.44036e-07
1.79598e-06
4.97824e-06
1.0572e-05
1.85982e-05
2.86926e-05
4.04e-05
5.33278e-05
6.71784e-05
8.17344e-05
9.68376e-05
0.000112371
0.000128245
0.000144394
0.000160762
0.000177309
0.000193998
0.000210803
0.000227698
0.000244664
0.000261684
0.000278744
0.00029583
0.000312932
0.000330041
0.000347146
0.000364242
0.000381321
0.000398378
0.000415406
0.000432401
0.000449359
0.000466275
0.000483147
0.000499969
0.000516741
0.000533458
0.000550118
0.000566719
0.000583258
0.000599735
0.000616145
0.000632489
0.000648765
0.00066497
0.000681104
0.000697165
0.000713152
0.000729065
0.000744901
0.000760661
0.000776343
0.000791946
0.00080747
0.000822914
0.000838277
0.000853559
0.000868759
0.000883877
0.000898912
0.000913864
0.000928732
0.000943516
0.000958216
0.000972831
0.000987361
0.00100181
0.00101617
0.00103044
0.00104463
0.00105873
0.00107275
0.00108668
0.00110052
0.00111428
0.00112795
0.00114153
0.00115503
0.00116844
0.00118176
0.001195
0.00120815
0.00122121
0.00123419
0.00124708
0.00125989
0.00127261
0.00128524
0.00129778
0.00131024
0.00132262
0.0013349
0.00134711
0.00135922
0.00137125
0.0013832
0.00139506
0.00140683
0.00141852
0.00143013
0.00144165
0.00145308
0.00146443
0.0014757
0.00148688
0.00149798
0.001509
0.00151993
0.00153078
0.00154154
0.00155222
0.00156282
0.00157334
0.00158378
0.00159413
0.0016044
0.00161459
0.0016247
0.00163472
0.00164467
0.00165453
0.00166432
0.00167402
0.00168365
0.00169319
0.00170265
0.00171204
0.00172134
0.00173057
0.00173972
0.00174879
0.00175778
0.00176669
0.00177553
0.00178428
0.00179296
0.00180157
0.00181009
0.00181854
0.00182691
0.00183521
0.00184343
0.00185158
0.00185965
0.00186764
0.00187556
0.0018834
0.00189117
0.00189887
0.00190649
0.00191404
0.00192151
0.00192891
0.00193624
0.00194349
0.00195067
0.00195778
0.00196482
0.00197178
0.00197868
0.0019855
0.00199225
0.00199893
0.00200554
0.00201208
0.00201854
0.00202494
0.00203127
0.00203753
0.00204371
0.00204983
0.00205588
0.00206187
0.00206778
0.00207362
0.0020794
0.00208511
0.00209075
0.00209633
0.00210183
0.00210728
0.00211265
0.00211796
0.0021232
0.00212837
0.00213348
0.00213853
0.00214351
0.00214842
0.00215327
0.00215806
0.00216278
0.00216743
0.00217203
0.00217656
0.00218102
0.00218542
0.00218976
0.00219404
0.00219826
0.00220241
0.0022065
0.00221053
0.0022145
0.00221841
0.00222225
0.00222604
0.00222976
0.00223343
0.00223703
0.00224057
0.00224406
0.00224749
0.00225085
0.00225416
0.00225741
0.0022606
0.00226373
0.00226681
0.00226983
0.00227279
0.00227569
0.00227854
0.00228133
0.00228406
0.00228674
0.00228936
0.00229193
0.00229444
0.0022969
0.0022993
0.00230165
0.00230394
0.00230618
0.00230837
0.0023105
0.00231258
0.0023146
0.00231658
0.0023185
0.00232037
0.00232219
0.00232395
0.00232567
0.00232733
0.00232895
0.00233051
0.00233202
0.00233349
0.0023349
0.00233626
0.00233758
0.00233885
0.00234007
0.00234124
0.00234236
0.00234344
0.00234447
0.00234545
0.00234638
0.00234727
0.00234811
0.00234891
0.00234966
0.00235037
0.00235104
0.00235165
0.00235223
0.00235276
0.00235325
0.00235369
0.00235409
0.00235445
0.00235477
0.00235505
0.00235528
0.00235547
0.00235563
0.00235574
0.00235581
0.00235584
0.00235584
0.00235579
0.0023557
0.00235558
0.00235542
0.00235522
0.00235499
0.00235472
0.00235441
0.00235406
0.00235368
0.00235326
0.00235281
0.00235233
0.00235181
0.00235125
0.00235066
0.00235004
0.00234939
0.0023487
0.00234798
0.00234723
0.00234645
0.00234564
0.0023448
0.00234392
0.00234302
0.00234209
0.00234113
0.00234014
0.00233912
0.00233807
0.002337
0.0023359
0.00233477
0.00233362
0.00233244
0.00233123
0.00233
0.00232875
0.00232747
0.00232616
0.00232484
0.00232349
0.00232212
0.00232072
0.0023193
0.00231787
0.00231641
0.00231493
0.00231342
0.0023119
0.00231036
0.00230881
0.00230723
0.00230563
0.00230402
0.00230238
0.00230074
0.00229907
0.00229739
0.00229569
0.00229398
0.00229225
0.0022905
0.00228875
0.00228698
0.00228519
0.00228339
0.00228158
0.00227976
0.00227792
0.00227607
0.00227421
0.00227234
0.00227046
0.00226857
0.00226667
0.00226476
0.00226285
0.00226092
0.00225898
0.00225704
0.00225509
0.00225313
0.00225117
0.0022492
0.00224722
0.00224524
0.00224325
0.00224125
0.00223926
0.00223725
0.00223525
0.00223324
0.00223122
0.00222921
0.00222719
0.00222517
0.00222314
0.00222112
0.00221909
0.00221707
0.00221504
0.00221301
0.00221098
0.00220895
0.00220692
0.0022049
0.00220287
0.00220085
0.00219882
0.0021968
0.00219478
0.00219277
0.00219075
0.00218874
0.00218674
0.00218473
0.00218273
0.00218074
0.00217875
0.00217676
0.00217478
0.0021728
0.00217083
0.00216886
0.0021669
0.00216495
0.002163
0.00216106
0.00215912
0.00215719
0.00215527
0.00215336
0.00215145
0.00214955
0.00214766
0.00214578
0.0021439
0.00214204
0.00214018
0.00213833
0.00213649
0.00213465
0.00213283
0.00213102
0.00212921
0.00212742
0.00212563
0.00212386
0.00212209
0.00212034
0.00211859
0.00211686
0.00211513
0.00211342
0.00211171
0.00211002
0.00210834
0.00210667
0.00210501
0.00210336
0.00210172
0.00210009
0.00209848
0.00209688
0.00209528
0.0020937
0.00209213
0.00209058
0.00208903
0.0020875
0.00208597
0.00208446
0.00208296
0.00208148
0.00208
0.00207854
0.00207709
0.00207565
0.00207422
0.00207281
0.00207141
0.00207002
0.00206864
0.00206727
0.00206592
0.00206458
0.00206325
0.00206193
0.00206062
0.00205933
0.00205805
0.00205678
0.00205552
0.00205428
0.00205304
0.00205182
0.00205061
0.00204942
0.00204823
0.00204706
0.0020459
0.00204475
0.00204361
0.00204248
0.00204137
0.00204026
0.00203917
0.00203809
0.00203702
0.00203597
0.00203492
0.00203389
0.00203287
0.00203185
0.00203085
0.00202987
0.00202889
0.00202792
0.00202696
0.00202602
0.00202509
0.00202416
0.00202325
0.00202235
0.00202146
0.00202057
0.0020197
0.00201884
0.00201799
0.00201715
0.00201632
0.0020155
0.0020147
0.0020139
0.00201311
0.00201233
0.00201156
0.0020108
0.00201004
0.0020093
0.00200857
0.00200785
0.00200713
0.00200643
0.00200573
0.00200505
0.00200437
0.0020037
0.00200304
0.00200239
0.00200175
0.00200111
0.00200049
0.00199987
0.00199926
0.00199866
0.00199807
0.00199749
0.00199691
0.00199634
0.00199578
0.00199523
0.00199468
0.00199414
0.00199361
0.00199309
0.00199257
0.00199207
0.00199156
0.00199107
0.00199058
0.0019901
0.00198963
0.00198916
0.0019887
0.00198825
0.0019878
0.00198736
0.00198693
0.0019865
0.00198608
0.00198567
0.00198526
0.00198485
0.00198446
0.00198407
0.00198368
0.0019833
0.00198293
0.00198256
0.0019822
0.00198184
0.00198149
0.00198114
0.0019808
0.00198047
0.00198014
0.00197981
0.00197949
0.00197918
0.00197887
0.00197856
0.00197826
0.00197796
0.00197767
0.00197739
0.0019771
0.00197682
0.00197655
0.00197628
0.00197602
0.00197576
0.0019755
0.00197525
0.001975
0.00197475
0.00197451
0.00197428
0.00197404
0.00197382
0.00197359
0.00197337
0.00197315
0.00197294
0.00197273
0.00197252
0.00197231
0.00197211
0.00197192
0.00197172
0.00197153
0.00197134
0.00197116
0.00197098
0.0019708
0.00197062
0.00197045
0.00197028
0.00197012
0.00196995
0.00196979
0.00196963
0.00196948
0.00196932
0.00196917
0.00196903
0.00196888
0.00196874
0.0019686
0.00196846
0.00196832
0.00196819
0.00196806
0.00196793
0.00196781
0.00196768
0.00196756
0.00196744
0.00196732
0.00196721
0.00196709
0.00196698
0.00196687
0.00196676
0.00196666
0.00196655
0.00196645
0.00196635
0.00196625
0.00196616
0.00196606
0.00196597
0.00196588
0.00196579
0.0019657
0.00196561
0.00196553
0.00196544
0.00196536
0.00196528
0.0019652
0.00196512
0.00196505
0.00196497
0.0019649
0.00196483
0.00196476
0.00196469
0.00196462
0.00196455
0.00196449
0.00196442
0.00196436
0.0019643
0.00196424
0.00196418
0.00196412
0.00196406
0.001964
0.00196395
0.00196389
0.00196384
0.00196379
0.00196374
0.00196369
0.00196364
0.00196359
0.00196354
0.00196349
0.00196345
0.0019634
0.00196336
0.00196332
0.00196327
0.00196323
0.00196319
0.00196315
0.00196311
0.00196307
0.00196304
0.001963
0.00196296
0.00196293
0.00196289
0.00196286
0.00196282
0.00196279
0.00196276
0.00196273
0.0019627
0.00196267
0.00196264
0.00196261
0.00196258
0.00196255
0.00196252
0.0019625
0.00196247
0.00196244
0.00196242
0.00196239
0.00196237
0.00196235
0.00196232
0.0019623
0.00196228
0.00196225
0.00196223
0.00196221
0.00196219
0.00196217
0.00196215
0.00196213
0.00196211
0.00196209
0.00196208
0.00196206
0.00196204
0.00196202
0.00196201
0.00196199
0.00196197
0.00196196
0.00196194
0.00196193
0.00196191
0.0019619
0.00196188
0.00196187
0.00196185
0.00196184
0.00196183
0.00196182
0.0019618
0.00196179
0.00196178
0.00196177
0.00196175
0.00196174
0.00196173
0.00196172
0.00196171
0.0019617
0.00196169
0.00196168
0.00196167
0.00196166
0.00196165
0.00196164
0.00196163
0.00196162
0.00196162
0.00196161
0.0019616
0.00196159
0.00196158
0.00196158
0.00196157
0.00196156
0.00196155
0.00196155
0.00196154
0.00196153
0.00196153
0.00196152
0.00196151
0.00196151
0.0019615
0.00196149
0.00196149
0.00196148
0.00196148
0.00196147
0.00196147
0.00196146
0.00196146
0.00196145
0.00196145
0.00196144
0.00196144
0.00196143
0.00196143
0.00196142
0.00196142
0.00196142
0.00196141
0.00196141
0.0019614
0.0019614
0.0019614
0.00196139
0.00196139
0.00196139
0.00196138
0.00196138
0.00196138
0.00196137
0.00196137
0.00196137
0.00196136
0.00196136
0.00196136
0.00196135
0.00196135
0.00196135
0.00196135
0.00196134
0.00196134
0.00196134
0.00196134
0.00196133
0.00196133
0.00196133
0.00196133
0.00196133
0.00196132
0.00196132
0.00196132
0.00196132
0.00196132
0.00196131
0.00196131
0.00196131
0.00196131
0.00196131
0.00196131
0.0019613
0.0019613
0.0019613
0.0019613
0.0019613
0.0019613
0.0019613
0.00196129
0.00196129
0.00196129
0.00196129
0.00196129
0.00196129
0.00196129
0.00196129
0.00196128
0.00196128
0.00196128
0.00196128
0.00196128
0.00196128
0.00196128
0.00196128
0.00196128
0.00196128
0.00196127
0.00196127
0.00196127
0.00196127
0.00196127
0.00196127
0.00196127
0.00196127
0.00196127
0.00196127
0.00196127
0.00196127
0.00196127
0.00196126
0.00196126
0.00196126
0.00196126
0.00196126
0.00196126
0.00196126
0.00196126
0.00196126
0.00196126
0.00196126
0.00196126
0.00196126
0.00196126
0.00196126
0.00196126
0.00196126
0.00196126
0.00196126
0.00196126
0.00196126
0.00196125
0.00196125
0.00196125
0.00196125
0.00196125
0.00196125
0.00196125
0.00196125
0.00196125
0.00196125
0.00196125
0.00196125
0.00196125
0.00196125
0.00196125
0.00196125
0.00196125
0.00196125
0.00196125
0.00196125
0.00196125
0.00196125
0.00196125
0.00196125
0.00196125
0.00196125
0.00196125
0.00196125
0.00196125
0.00196125
0.00196125
0.00196125
0.00196125
0.00196125
0.00196125
0.00196125
0.00196125
0.00196125
0.00196125
0.00196125
0.00196125
0.00196125
0.00196125
0.00196124
0.00196124
0.00196124
0.00196124
0.00196124
0.00196124
0.00196124
0.00196124
0.00196124
0.00196124
0.00196124
0.00196124
0.00196124
0.00196124
0.00196124
0.00196124
0.00196124
0.00196124
0.00196124
0.00196124
0.00196124
0.00196124
0.00196124
0.00196124
0.00196124
0.00196124
0.00196124
0.00196124
0.00196124
0.00196124
0.00196124
0.00196124
0.00196124
0.00196124
0.00196124
0.00196124
0.00196124
0.00196124
0.00196124
0.00196124
0.00196124
0.00196124
0.00196124
0.00196124
0.00196124
0.00196124
0.00196124
0.00196124
0.00196124
0.00196124
0.00196124
0.00196124
0.00196124
0.00196124
0.00196124
0.00196124
0.00196124
0.00196124
0.00196124
0.00196124
0.00196124
0.00196124
0.00196124
0.00196124
0.00196124
0.00196124
0.00196124
0.00196124
0.00196124
0.00196124
0.00196124
0.00196124
0.00196124
0.00196124
0.00196124
0.00196124
0.00196124
0.00196124
0.00196124
0.00196124
0.00196124
0.00196124
0.00196124
0.00196124
0.00196124
0.00196124
0.00196124
0.00196124
0.00196124
0.00196124
0.00196124
0.00196124
0.00196124
0.00196125
0.00196125
0.00196125
0.00196125
0.00196125
0.00196125
0.00196125
0.00196125
0.00196125
0.00196125
0.00196125
0.00196125
0.00196125
0.00196125
0.00196125
0.00196125
0.00196125
0.00196125
0.00196125
0.00196125
0.00196125
0.00196125
0.00196125
0.00196125
0.00196125
0.00196125
0.00196125
0.00196125
0.00196125
0.00196125
0.00196125
0.00196125
0.00196125
0.00196125
0.00196125
0.00196125
0.00196125
0.00196125
0.00196125
0.00196125
0.00196125
0.00196125
0.00196126
0.00196126
0.00196126
0.00196126
0.00196126
0.00196126
0.00196126
0.00196126
0.00196126
0.00196126
0.00196126
0.00196126
0.00196126
0.00196126
0.00196126
0.00196126
0.00196126
0.00196126
0.00196126
0.00196126
0.00196127
0.00196127
0.00196127
0.00196127
0.00196127
0.00196127
0.00196127
0.00196127
0.00196127
0.00196127
0.00196127
0.00196127
0.00196127
0.00196128
0.00196128
0.00196128
0.00196128
0.00196128
0.00196128
0.00196128
0.00196128
0.00196128
0.00196128
0.00196129
0.00196129
0.00196129
0.00196129
0.00196129
0.00196129
0.00196129
0.00196129
0.0019613
0.0019613
0.0019613
0.0019613
0.0019613
0.0019613
0.00196131
0.00196131
0.00196131
0.00196131
0.00196131
0.00196131
0.00196132
0.00196132
0.00196132
0.00196132
0.00196132
0.00196133
0.00196133
0.00196133
0.00196133
0.00196133
0.00196134
0.00196134
0.00196134
0.00196134
0.00196135
0.00196135
0.00196135
0.00196135
0.00196136
0.00196136
0.00196136
0.00196137
0.00196137
0.00196137
0.00196137
0.00196138
0.00196138
0.00196138
0.00196139
0.00196139
0.0019614
0.0019614
0.0019614
0.00196141
0.00196141
0.00196142
0.00196142
0.00196142
0.00196143
0.00196143
0.00196144
0.00196144
0.00196145
0.00196145
0.00196146
0.00196146
0.00196147
0.00196147
0.00196148
0.00196148
0.00196149
0.00196149
0.0019615
0.00196151
0.00196151
0.00196152
0.00196153
0.00196153
0.00196154
0.00196155
0.00196155
0.00196156
0.00196157
0.00196158
0.00196158
0.00196159
0.0019616
0.00196161
0.00196162
0.00196162
0.00196163
0.00196164
0.00196165
0.00196166
0.00196167
0.00196168
0.00196169
0.0019617
0.00196171
0.00196172
0.00196173
0.00196174
0.00196175
0.00196177
0.00196178
0.00196179
0.0019618
0.00196181
0.00196183
0.00196184
0.00196185
0.00196187
0.00196188
0.0019619
0.00196191
0.00196193
0.00196194
0.00196196
0.00196197
0.00196199
0.001962
0.00196202
0.00196204
0.00196206
0.00196207
0.00196209
0.00196211
0.00196213
0.00196215
0.00196217
0.00196219
0.00196221
0.00196223
0.00196225
0.00196228
0.0019623
0.00196232
0.00196234
0.00196237
0.00196239
0.00196242
0.00196244
0.00196247
0.0019625
0.00196252
0.00196255
0.00196258
0.00196261
0.00196264
0.00196267
0.0019627
0.00196273
0.00196276
0.00196279
0.00196282
0.00196286
0.00196289
0.00196293
0.00196296
0.001963
0.00196303
0.00196307
0.00196311
0.00196315
0.00196319
0.00196323
0.00196327
0.00196331
0.00196336
0.0019634
0.00196345
0.00196349
0.00196354
0.00196359
0.00196364
0.00196368
0.00196374
0.00196379
0.00196384
0.00196389
0.00196395
0.001964
0.00196406
0.00196412
0.00196417
0.00196423
0.0019643
0.00196436
0.00196442
0.00196449
0.00196455
0.00196462
0.00196469
0.00196476
0.00196483
0.0019649
0.00196497
0.00196505
0.00196512
0.0019652
0.00196528
0.00196536
0.00196544
0.00196553
0.00196561
0.0019657
0.00196579
0.00196588
0.00196597
0.00196606
0.00196616
0.00196625
0.00196635
0.00196645
0.00196655
0.00196666
0.00196676
0.00196687
0.00196698
0.00196709
0.0019672
0.00196732
0.00196744
0.00196756
0.00196768
0.0019678
0.00196793
0.00196806
0.00196819
0.00196832
0.00196846
0.0019686
0.00196874
0.00196888
0.00196902
0.00196917
0.00196932
0.00196948
0.00196963
0.00196979
0.00196995
0.00197011
0.00197028
0.00197045
0.00197062
0.0019708
0.00197098
0.00197116
0.00197134
0.00197153
0.00197172
0.00197191
0.00197211
0.00197231
0.00197252
0.00197272
0.00197293
0.00197315
0.00197337
0.00197359
0.00197381
0.00197404
0.00197428
0.00197451
0.00197475
0.001975
0.00197525
0.0019755
0.00197575
0.00197602
0.00197628
0.00197655
0.00197682
0.0019771
0.00197738
0.00197767
0.00197796
0.00197826
0.00197856
0.00197887
0.00197918
0.00197949
0.00197981
0.00198014
0.00198047
0.0019808
0.00198114
0.00198149
0.00198184
0.0019822
0.00198256
0.00198293
0.0019833
0.00198368
0.00198407
0.00198446
0.00198485
0.00198526
0.00198566
0.00198608
0.0019865
0.00198693
0.00198736
0.0019878
0.00198825
0.0019887
0.00198916
0.00198963
0.0019901
0.00199058
0.00199107
0.00199156
0.00199206
0.00199257
0.00199309
0.00199361
0.00199414
0.00199468
0.00199522
0.00199578
0.00199634
0.00199691
0.00199748
0.00199807
0.00199866
0.00199926
0.00199987
0.00200049
0.00200111
0.00200175
0.00200239
0.00200304
0.0020037
0.00200437
0.00200505
0.00200573
0.00200643
0.00200713
0.00200785
0.00200857
0.0020093
0.00201004
0.00201079
0.00201155
0.00201232
0.0020131
0.00201389
0.00201469
0.0020155
0.00201632
0.00201715
0.00201799
0.00201884
0.0020197
0.00202057
0.00202145
0.00202234
0.00202325
0.00202416
0.00202508
0.00202602
0.00202696
0.00202792
0.00202888
0.00202986
0.00203085
0.00203185
0.00203286
0.00203389
0.00203492
0.00203597
0.00203702
0.00203809
0.00203917
0.00204026
0.00204136
0.00204248
0.00204361
0.00204474
0.00204589
0.00204705
0.00204823
0.00204941
0.00205061
0.00205182
0.00205304
0.00205427
0.00205552
0.00205678
0.00205805
0.00205933
0.00206062
0.00206193
0.00206324
0.00206457
0.00206592
0.00206727
0.00206864
0.00207001
0.0020714
0.00207281
0.00207422
0.00207565
0.00207709
0.00207854
0.00208
0.00208148
0.00208296
0.00208446
0.00208597
0.00208749
0.00208903
0.00209057
0.00209213
0.0020937
0.00209528
0.00209687
0.00209848
0.00210009
0.00210172
0.00210336
0.00210501
0.00210666
0.00210834
0.00211002
0.00211171
0.00211341
0.00211513
0.00211685
0.00211859
0.00212033
0.00212209
0.00212385
0.00212563
0.00212741
0.00212921
0.00213101
0.00213283
0.00213465
0.00213648
0.00213832
0.00214017
0.00214203
0.0021439
0.00214578
0.00214766
0.00214955
0.00215145
0.00215336
0.00215527
0.00215719
0.00215912
0.00216106
0.002163
0.00216495
0.0021669
0.00216886
0.00217083
0.0021728
0.00217477
0.00217676
0.00217874
0.00218073
0.00218273
0.00218473
0.00218673
0.00218874
0.00219075
0.00219276
0.00219478
0.0021968
0.00219882
0.00220084
0.00220287
0.00220489
0.00220692
0.00220895
0.00221098
0.00221301
0.00221503
0.00221706
0.00221909
0.00222112
0.00222314
0.00222516
0.00222719
0.0022292
0.00223122
0.00223323
0.00223524
0.00223725
0.00223925
0.00224125
0.00224324
0.00224523
0.00224722
0.00224919
0.00225116
0.00225313
0.00225509
0.00225704
0.00225898
0.00226092
0.00226284
0.00226476
0.00226667
0.00226857
0.00227046
0.00227234
0.00227421
0.00227607
0.00227792
0.00227975
0.00228158
0.00228339
0.00228519
0.00228697
0.00228875
0.0022905
0.00229225
0.00229398
0.00229569
0.00229739
0.00229907
0.00230073
0.00230238
0.00230401
0.00230563
0.00230723
0.0023088
0.00231036
0.0023119
0.00231342
0.00231492
0.0023164
0.00231786
0.0023193
0.00232072
0.00232211
0.00232349
0.00232484
0.00232616
0.00232747
0.00232875
0.00233
0.00233123
0.00233244
0.00233362
0.00233477
0.0023359
0.002337
0.00233807
0.00233912
0.00234014
0.00234113
0.00234209
0.00234302
0.00234392
0.0023448
0.00234564
0.00234645
0.00234723
0.00234798
0.0023487
0.00234939
0.00235004
0.00235066
0.00235125
0.00235181
0.00235233
0.00235281
0.00235326
0.00235368
0.00235406
0.0023544
0.00235471
0.00235499
0.00235522
0.00235542
0.00235558
0.0023557
0.00235579
0.00235583
0.00235584
0.00235581
0.00235574
0.00235562
0.00235547
0.00235528
0.00235504
0.00235477
0.00235445
0.00235409
0.00235369
0.00235325
0.00235276
0.00235223
0.00235165
0.00235103
0.00235037
0.00234966
0.00234891
0.00234811
0.00234727
0.00234638
0.00234545
0.00234446
0.00234344
0.00234236
0.00234124
0.00234007
0.00233885
0.00233758
0.00233626
0.0023349
0.00233349
0.00233202
0.00233051
0.00232895
0.00232733
0.00232567
0.00232395
0.00232219
0.00232037
0.0023185
0.00231658
0.0023146
0.00231258
0.0023105
0.00230837
0.00230618
0.00230394
0.00230165
0.0022993
0.0022969
0.00229444
0.00229193
0.00228936
0.00228674
0.00228406
0.00228133
0.00227854
0.00227569
0.00227279
0.00226983
0.00226681
0.00226373
0.0022606
0.00225741
0.00225416
0.00225085
0.00224749
0.00224406
0.00224057
0.00223703
0.00223343
0.00222976
0.00222604
0.00222225
0.00221841
0.0022145
0.00221053
0.0022065
0.00220241
0.00219826
0.00219404
0.00218977
0.00218542
0.00218102
0.00217656
0.00217203
0.00216743
0.00216278
0.00215806
0.00215327
0.00214842
0.00214351
0.00213853
0.00213348
0.00212837
0.0021232
0.00211796
0.00211265
0.00210728
0.00210183
0.00209633
0.00209075
0.00208511
0.0020794
0.00207362
0.00206778
0.00206187
0.00205588
0.00204983
0.00204371
0.00203753
0.00203127
0.00202494
0.00201854
0.00201208
0.00200554
0.00199893
0.00199225
0.0019855
0.00197868
0.00197178
0.00196482
0.00195778
0.00195067
0.00194349
0.00193624
0.00192891
0.00192151
0.00191404
0.00190649
0.00189887
0.00189117
0.0018834
0.00187556
0.00186764
0.00185965
0.00185158
0.00184343
0.00183521
0.00182692
0.00181854
0.00181009
0.00180157
0.00179296
0.00178428
0.00177553
0.00176669
0.00175778
0.00174879
0.00173972
0.00173057
0.00172134
0.00171204
0.00170265
0.00169319
0.00168365
0.00167402
0.00166432
0.00165453
0.00164467
0.00163472
0.0016247
0.00161459
0.0016044
0.00159413
0.00158378
0.00157334
0.00156282
0.00155222
0.00154154
0.00153078
0.00151993
0.001509
0.00149798
0.00148688
0.0014757
0.00146443
0.00145308
0.00144165
0.00143013
0.00141852
0.00140683
0.00139506
0.0013832
0.00137125
0.00135922
0.00134711
0.0013349
0.00132262
0.00131024
0.00129778
0.00128524
0.00127261
0.00125989
0.00124708
0.00123419
0.00122121
0.00120815
0.001195
0.00118176
0.00116844
0.00115503
0.00114153
0.00112795
0.00111428
0.00110052
0.00108668
0.00107275
0.00105873
0.00104463
0.00103044
0.00101617
0.00100181
0.000987361
0.000972831
0.000958216
0.000943516
0.000928732
0.000913864
0.000898912
0.000883877
0.000868759
0.000853559
0.000838277
0.000822914
0.00080747
0.000791946
0.000776343
0.000760661
0.000744901
0.000729065
0.000713152
0.000697165
0.000681104
0.00066497
0.000648765
0.000632489
0.000616145
0.000599735
0.000583258
0.000566719
0.000550118
0.000533458
0.000516741
0.000499969
0.000483147
0.000466275
0.000449359
0.000432401
0.000415406
0.000398378
0.000381321
0.000364242
0.000347146
0.000330041
0.000312932
0.00029583
0.000278744
0.000261684
0.000244664
0.000227698
0.000210803
0.000193998
0.000177309
0.000160762
0.000144394
0.000128245
0.000112371
9.68376e-05
8.17345e-05
6.71784e-05
5.33278e-05
4.04e-05
2.86926e-05
1.85982e-05
1.0572e-05
4.97825e-06
1.79598e-06
4.44036e-07
6.22791e-08
4.00629e-09
1.16221e-09
)
;

boundaryField
{
    top_wall
    {
        type            nutLowReWallFunction;
        value           uniform 0;
    }
    inlet
    {
        type            cyclic;
    }
    bot_wall
    {
        type            nutLowReWallFunction;
        value           uniform 0;
    }
    outlet
    {
        type            cyclic;
    }
    frontAndBack
    {
        type            empty;
    }
}


// ************************************************************************* //
