/*--------------------------------*- C++ -*----------------------------------*\
| =========                 |                                                 |
| \\      /  F ield         | OpenFOAM: The Open Source CFD Toolbox           |
|  \\    /   O peration     | Version:  2312                                  |
|   \\  /    A nd           | Website:  www.openfoam.com                      |
|    \\/     M anipulation  |                                                 |
\*---------------------------------------------------------------------------*/
FoamFile
{
    version     2.0;
    format      ascii;
    arch        "LSB;label=32;scalar=64";
    class       volVectorField;
    location    "20.71";
    object      U;
}
// * * * * * * * * * * * * * * * * * * * * * * * * * * * * * * * * * * * * * //

dimensions      [0 1 -1 0 0 0 0];

internalField   nonuniform List<vector> 
2000
(
(0.0251726 1.80174e-18 0)
(0.0754628 2.88318e-18 0)
(0.12567 3.27844e-18 0)
(0.175605 2.88155e-18 0)
(0.224642 2.86001e-18 0)
(0.271547 2.88493e-18 0)
(0.314843 2.88671e-18 0)
(0.353533 2.90329e-18 0)
(0.387427 2.89813e-18 0)
(0.416919 2.88753e-18 0)
(0.442633 2.88509e-18 0)
(0.4652 2.85656e-18 0)
(0.485169 2.87481e-18 0)
(0.502992 2.89016e-18 0)
(0.519032 2.8595e-18 0)
(0.533576 2.83909e-18 0)
(0.546856 2.83772e-18 0)
(0.559056 2.842e-18 0)
(0.570326 2.84049e-18 0)
(0.580789 2.83001e-18 0)
(0.590547 2.81492e-18 0)
(0.599683 2.80031e-18 0)
(0.608269 2.78097e-18 0)
(0.616363 2.75213e-18 0)
(0.624018 2.71969e-18 0)
(0.631276 2.68895e-18 0)
(0.638176 2.65983e-18 0)
(0.64475 2.6265e-18 0)
(0.651026 2.58358e-18 0)
(0.657031 2.5371e-18 0)
(0.662785 2.4939e-18 0)
(0.668309 2.44659e-18 0)
(0.67362 2.39545e-18 0)
(0.678734 2.34626e-18 0)
(0.683664 2.29886e-18 0)
(0.688424 2.25312e-18 0)
(0.693024 2.20893e-18 0)
(0.697475 2.16618e-18 0)
(0.701786 2.12477e-18 0)
(0.705966 2.08462e-18 0)
(0.710023 2.04565e-18 0)
(0.713963 2.0078e-18 0)
(0.717793 1.971e-18 0)
(0.721519 1.93518e-18 0)
(0.725147 1.90031e-18 0)
(0.728682 1.86632e-18 0)
(0.732128 1.83319e-18 0)
(0.73549 1.80086e-18 0)
(0.738772 1.76929e-18 0)
(0.741977 1.73846e-18 0)
(0.74511 1.70833e-18 0)
(0.748173 1.67887e-18 0)
(0.75117 1.65005e-18 0)
(0.754104 1.62185e-18 0)
(0.756976 1.59423e-18 0)
(0.75979 1.56718e-18 0)
(0.762549 1.54068e-18 0)
(0.765253 1.5147e-18 0)
(0.767906 1.48923e-18 0)
(0.77051 1.46424e-18 0)
(0.773065 1.43973e-18 0)
(0.775575 1.41567e-18 0)
(0.77804 1.39204e-18 0)
(0.780462 1.36884e-18 0)
(0.782844 1.34605e-18 0)
(0.785185 1.32366e-18 0)
(0.787488 1.30165e-18 0)
(0.789754 1.28002e-18 0)
(0.791984 1.25874e-18 0)
(0.794179 1.23782e-18 0)
(0.79634 1.21723e-18 0)
(0.798469 1.19698e-18 0)
(0.800566 1.17705e-18 0)
(0.802633 1.15742e-18 0)
(0.804669 1.13811e-18 0)
(0.806677 1.11908e-18 0)
(0.808656 1.10034e-18 0)
(0.810609 1.08187e-18 0)
(0.812535 1.06368e-18 0)
(0.814435 1.04574e-18 0)
(0.81631 1.02806e-18 0)
(0.81816 1.01062e-18 0)
(0.819987 9.9341e-19 0)
(0.821791 9.76431e-19 0)
(0.823572 9.5967e-19 0)
(0.825331 9.43119e-19 0)
(0.827069 9.26767e-19 0)
(0.828786 9.10607e-19 0)
(0.830482 8.94628e-19 0)
(0.832159 8.7882e-19 0)
(0.833816 8.63172e-19 0)
(0.835454 8.47674e-19 0)
(0.837074 8.32314e-19 0)
(0.838676 8.17079e-19 0)
(0.84026 8.01956e-19 0)
(0.841827 7.86932e-19 0)
(0.843376 7.71992e-19 0)
(0.84491 7.5712e-19 0)
(0.846427 7.42302e-19 0)
(0.847928 7.27519e-19 0)
(0.849414 7.12755e-19 0)
(0.850884 6.97992e-19 0)
(0.85234 6.83212e-19 0)
(0.853781 6.68397e-19 0)
(0.855208 6.5353e-19 0)
(0.856621 6.38593e-19 0)
(0.85802 6.23571e-19 0)
(0.859406 6.08452e-19 0)
(0.860778 5.93225e-19 0)
(0.862138 5.77884e-19 0)
(0.863485 5.62427e-19 0)
(0.864819 5.46847e-19 0)
(0.866141 5.31131e-19 0)
(0.867451 5.15425e-19 0)
(0.868749 4.99736e-19 0)
(0.870036 4.83919e-19 0)
(0.871311 4.67994e-19 0)
(0.872576 4.51981e-19 0)
(0.873829 4.35906e-19 0)
(0.875071 4.19796e-19 0)
(0.876303 4.03682e-19 0)
(0.877524 3.87601e-19 0)
(0.878735 3.71588e-19 0)
(0.879936 3.55691e-19 0)
(0.881127 3.39968e-19 0)
(0.882308 3.24479e-19 0)
(0.883479 3.09129e-19 0)
(0.884641 2.93957e-19 0)
(0.885794 2.78961e-19 0)
(0.886937 2.64106e-19 0)
(0.888072 2.49297e-19 0)
(0.889197 2.34368e-19 0)
(0.890314 2.18917e-19 0)
(0.891422 2.02704e-19 0)
(0.892521 1.85195e-19 0)
(0.893613 1.65973e-19 0)
(0.894695 1.44311e-19 0)
(0.89577 1.19759e-19 0)
(0.896837 9.04734e-20 0)
(0.897895 6.96222e-20 0)
(0.898946 1.15961e-19 0)
(0.89999 1.61974e-19 0)
(0.901025 1.41051e-19 0)
(0.902053 1.12035e-19 0)
(0.903074 8.80529e-20 0)
(0.904087 6.72665e-20 0)
(0.905093 4.90694e-20 0)
(0.906092 3.28669e-20 0)
(0.907084 1.80979e-20 0)
(0.908069 4.36481e-21 0)
(0.909047 -8.71746e-21 0)
(0.910019 -2.14117e-20 0)
(0.910983 -3.38814e-20 0)
(0.911941 -4.62227e-20 0)
(0.912893 -5.84763e-20 0)
(0.913838 -7.06489e-20 0)
(0.914777 -8.28496e-20 0)
(0.915709 -9.50485e-20 0)
(0.916636 -1.0722e-19 0)
(0.917556 -1.19339e-19 0)
(0.91847 -1.31384e-19 0)
(0.919378 -1.43342e-19 0)
(0.92028 -1.55208e-19 0)
(0.921177 -1.66988e-19 0)
(0.922067 -1.78694e-19 0)
(0.922952 -1.90347e-19 0)
(0.923831 -2.0237e-19 0)
(0.924704 -2.09088e-19 0)
(0.925572 -2.04485e-19 0)
(0.926435 -1.93479e-19 0)
(0.927292 -1.9995e-19 0)
(0.928144 -2.27735e-19 0)
(0.92899 -2.56164e-19 0)
(0.929831 -2.57821e-19 0)
(0.930667 -2.368e-19 0)
(0.931498 -2.23656e-19 0)
(0.932324 -2.16647e-19 0)
(0.933144 -2.09701e-19 0)
(0.93396 -2.03373e-19 0)
(0.934771 -1.97588e-19 0)
(0.935577 -1.92384e-19 0)
(0.936378 -1.87787e-19 0)
(0.937174 -1.83809e-19 0)
(0.937965 -1.80451e-19 0)
(0.938752 -1.77702e-19 0)
(0.939534 -1.7554e-19 0)
(0.940312 -1.73928e-19 0)
(0.941085 -1.72821e-19 0)
(0.941853 -1.72285e-19 0)
(0.942617 -1.72265e-19 0)
(0.943376 -1.72712e-19 0)
(0.944132 -1.73575e-19 0)
(0.944882 -1.74799e-19 0)
(0.945629 -1.76335e-19 0)
(0.946371 -1.78122e-19 0)
(0.947109 -1.80087e-19 0)
(0.947842 -1.8214e-19 0)
(0.948572 -1.84156e-19 0)
(0.949297 -1.85838e-19 0)
(0.950019 -1.87396e-19 0)
(0.950736 -1.82874e-19 0)
(0.951449 -1.64674e-19 0)
(0.952158 -1.51591e-19 0)
(0.952864 -1.78122e-19 0)
(0.953565 -2.05084e-19 0)
(0.954262 -1.93717e-19 0)
(0.954956 -1.72869e-19 0)
(0.955646 -1.55218e-19 0)
(0.956332 -1.39333e-19 0)
(0.957014 -1.24962e-19 0)
(0.957692 -1.11839e-19 0)
(0.958367 -9.97834e-20 0)
(0.959038 -8.85551e-20 0)
(0.959706 -7.80614e-20 0)
(0.96037 -6.82271e-20 0)
(0.96103 -5.8987e-20 0)
(0.961687 -5.0272e-20 0)
(0.96234 -4.21228e-20 0)
(0.962989 -3.44734e-20 0)
(0.963636 -2.7256e-20 0)
(0.964278 -2.0404e-20 0)
(0.964918 -1.38542e-20 0)
(0.965554 -7.54845e-21 0)
(0.966186 -1.42544e-21 0)
(0.966815 4.46455e-21 0)
(0.967441 1.01759e-20 0)
(0.968064 1.57538e-20 0)
(0.968683 2.12354e-20 0)
(0.969299 2.66498e-20 0)
(0.969912 3.20194e-20 0)
(0.970522 3.73605e-20 0)
(0.971128 4.26841e-20 0)
(0.971732 4.79966e-20 0)
(0.972332 5.33006e-20 0)
(0.972929 5.85957e-20 0)
(0.973523 6.38791e-20 0)
(0.974114 6.91464e-20 0)
(0.974702 7.43918e-20 0)
(0.975287 7.96091e-20 0)
(0.975869 8.47915e-20 0)
(0.976447 8.99323e-20 0)
(0.977023 9.50251e-20 0)
(0.977596 1.00064e-19 0)
(0.978166 1.05043e-19 0)
(0.978733 1.09959e-19 0)
(0.979298 1.14806e-19 0)
(0.979859 1.19583e-19 0)
(0.980418 1.24285e-19 0)
(0.980973 1.28912e-19 0)
(0.981526 1.33462e-19 0)
(0.982076 1.37935e-19 0)
(0.982623 1.42332e-19 0)
(0.983168 1.46651e-19 0)
(0.98371 1.50896e-19 0)
(0.984249 1.55066e-19 0)
(0.984785 1.59164e-19 0)
(0.985319 1.63193e-19 0)
(0.98585 1.67153e-19 0)
(0.986378 1.71048e-19 0)
(0.986904 1.74879e-19 0)
(0.987427 1.78651e-19 0)
(0.987948 1.82365e-19 0)
(0.988466 1.86024e-19 0)
(0.988981 1.89631e-19 0)
(0.989494 1.93189e-19 0)
(0.990004 1.96699e-19 0)
(0.990512 2.00166e-19 0)
(0.991017 2.03591e-19 0)
(0.99152 2.06978e-19 0)
(0.99202 2.10327e-19 0)
(0.992518 2.13643e-19 0)
(0.993013 2.16926e-19 0)
(0.993506 2.2018e-19 0)
(0.993996 2.23406e-19 0)
(0.994484 2.26607e-19 0)
(0.99497 2.29784e-19 0)
(0.995453 2.32939e-19 0)
(0.995934 2.36074e-19 0)
(0.996412 2.3919e-19 0)
(0.996888 2.4229e-19 0)
(0.997362 2.45374e-19 0)
(0.997833 2.48445e-19 0)
(0.998302 2.51503e-19 0)
(0.998769 2.54549e-19 0)
(0.999234 2.57586e-19 0)
(0.999696 2.60613e-19 0)
(1.00016 2.63633e-19 0)
(1.00061 2.66646e-19 0)
(1.00107 2.69653e-19 0)
(1.00152 2.72654e-19 0)
(1.00197 2.75652e-19 0)
(1.00242 2.78646e-19 0)
(1.00287 2.81637e-19 0)
(1.00331 2.84625e-19 0)
(1.00376 2.87612e-19 0)
(1.0042 2.90598e-19 0)
(1.00463 2.93584e-19 0)
(1.00507 2.96569e-19 0)
(1.0055 2.99554e-19 0)
(1.00594 3.0254e-19 0)
(1.00637 3.05527e-19 0)
(1.00679 3.08515e-19 0)
(1.00722 3.11505e-19 0)
(1.00764 3.14496e-19 0)
(1.00806 3.17489e-19 0)
(1.00848 3.20484e-19 0)
(1.0089 3.23481e-19 0)
(1.00931 3.2648e-19 0)
(1.00973 3.29482e-19 0)
(1.01014 3.32486e-19 0)
(1.01055 3.35492e-19 0)
(1.01095 3.38501e-19 0)
(1.01136 3.41512e-19 0)
(1.01176 3.44525e-19 0)
(1.01216 3.47541e-19 0)
(1.01256 3.50559e-19 0)
(1.01296 3.5358e-19 0)
(1.01335 3.56603e-19 0)
(1.01375 3.59627e-19 0)
(1.01414 3.62654e-19 0)
(1.01453 3.65683e-19 0)
(1.01492 3.68714e-19 0)
(1.0153 3.71746e-19 0)
(1.01569 3.7478e-19 0)
(1.01607 3.77815e-19 0)
(1.01645 3.80852e-19 0)
(1.01683 3.8389e-19 0)
(1.0172 3.86929e-19 0)
(1.01758 3.89969e-19 0)
(1.01795 3.9301e-19 0)
(1.01832 3.96051e-19 0)
(1.01869 3.99093e-19 0)
(1.01906 4.02135e-19 0)
(1.01942 4.05178e-19 0)
(1.01978 4.0822e-19 0)
(1.02015 4.11263e-19 0)
(1.02051 4.14305e-19 0)
(1.02086 4.17347e-19 0)
(1.02122 4.20388e-19 0)
(1.02157 4.23429e-19 0)
(1.02193 4.26469e-19 0)
(1.02228 4.29508e-19 0)
(1.02263 4.32545e-19 0)
(1.02297 4.35582e-19 0)
(1.02332 4.38617e-19 0)
(1.02366 4.4165e-19 0)
(1.02401 4.44682e-19 0)
(1.02435 4.47712e-19 0)
(1.02469 4.5074e-19 0)
(1.02502 4.53766e-19 0)
(1.02536 4.5679e-19 0)
(1.02569 4.59811e-19 0)
(1.02602 4.6283e-19 0)
(1.02635 4.65846e-19 0)
(1.02668 4.68859e-19 0)
(1.02701 4.7187e-19 0)
(1.02733 4.74877e-19 0)
(1.02766 4.77882e-19 0)
(1.02798 4.80883e-19 0)
(1.0283 4.8388e-19 0)
(1.02862 4.86874e-19 0)
(1.02894 4.89865e-19 0)
(1.02925 4.92852e-19 0)
(1.02957 4.95835e-19 0)
(1.02988 4.98814e-19 0)
(1.03019 5.01788e-19 0)
(1.0305 5.04759e-19 0)
(1.0308 5.07726e-19 0)
(1.03111 5.10688e-19 0)
(1.03141 5.13645e-19 0)
(1.03172 5.16598e-19 0)
(1.03202 5.19547e-19 0)
(1.03232 5.2249e-19 0)
(1.03261 5.25429e-19 0)
(1.03291 5.28363e-19 0)
(1.03321 5.31291e-19 0)
(1.0335 5.34215e-19 0)
(1.03379 5.37133e-19 0)
(1.03408 5.40047e-19 0)
(1.03437 5.42954e-19 0)
(1.03466 5.45857e-19 0)
(1.03494 5.48753e-19 0)
(1.03523 5.51645e-19 0)
(1.03551 5.5453e-19 0)
(1.03579 5.5741e-19 0)
(1.03607 5.60284e-19 0)
(1.03635 5.63152e-19 0)
(1.03662 5.66014e-19 0)
(1.0369 5.6887e-19 0)
(1.03717 5.7172e-19 0)
(1.03744 5.74564e-19 0)
(1.03771 5.77401e-19 0)
(1.03798 5.80233e-19 0)
(1.03825 5.83058e-19 0)
(1.03851 5.85877e-19 0)
(1.03878 5.88689e-19 0)
(1.03904 5.91495e-19 0)
(1.0393 5.94294e-19 0)
(1.03956 5.97086e-19 0)
(1.03982 5.99872e-19 0)
(1.04008 6.02652e-19 0)
(1.04034 6.05424e-19 0)
(1.04059 6.0819e-19 0)
(1.04084 6.10949e-19 0)
(1.04109 6.13701e-19 0)
(1.04134 6.16447e-19 0)
(1.04159 6.19185e-19 0)
(1.04184 6.21916e-19 0)
(1.04209 6.24641e-19 0)
(1.04233 6.27358e-19 0)
(1.04257 6.30068e-19 0)
(1.04281 6.32771e-19 0)
(1.04305 6.35467e-19 0)
(1.04329 6.38156e-19 0)
(1.04353 6.40837e-19 0)
(1.04377 6.43511e-19 0)
(1.044 6.46178e-19 0)
(1.04424 6.48838e-19 0)
(1.04447 6.5149e-19 0)
(1.0447 6.54135e-19 0)
(1.04493 6.56773e-19 0)
(1.04516 6.59403e-19 0)
(1.04538 6.62025e-19 0)
(1.04561 6.64641e-19 0)
(1.04583 6.67248e-19 0)
(1.04605 6.69849e-19 0)
(1.04627 6.72441e-19 0)
(1.04649 6.75026e-19 0)
(1.04671 6.77604e-19 0)
(1.04693 6.80174e-19 0)
(1.04715 6.82736e-19 0)
(1.04736 6.85291e-19 0)
(1.04757 6.87838e-19 0)
(1.04779 6.90377e-19 0)
(1.048 6.92908e-19 0)
(1.04821 6.95432e-19 0)
(1.04842 6.97949e-19 0)
(1.04862 7.00457e-19 0)
(1.04883 7.02958e-19 0)
(1.04903 7.05451e-19 0)
(1.04924 7.07936e-19 0)
(1.04944 7.10413e-19 0)
(1.04964 7.12883e-19 0)
(1.04984 7.15344e-19 0)
(1.05004 7.17798e-19 0)
(1.05023 7.20244e-19 0)
(1.05043 7.22682e-19 0)
(1.05062 7.25113e-19 0)
(1.05082 7.27535e-19 0)
(1.05101 7.2995e-19 0)
(1.0512 7.32356e-19 0)
(1.05139 7.34755e-19 0)
(1.05158 7.37146e-19 0)
(1.05176 7.39529e-19 0)
(1.05195 7.41904e-19 0)
(1.05213 7.44271e-19 0)
(1.05232 7.4663e-19 0)
(1.0525 7.48981e-19 0)
(1.05268 7.51324e-19 0)
(1.05286 7.53659e-19 0)
(1.05304 7.55986e-19 0)
(1.05322 7.58306e-19 0)
(1.05339 7.60617e-19 0)
(1.05357 7.6292e-19 0)
(1.05374 7.65216e-19 0)
(1.05391 7.67503e-19 0)
(1.05409 7.69782e-19 0)
(1.05426 7.72054e-19 0)
(1.05443 7.74317e-19 0)
(1.05459 7.76572e-19 0)
(1.05476 7.7882e-19 0)
(1.05493 7.81059e-19 0)
(1.05509 7.8329e-19 0)
(1.05526 7.85514e-19 0)
(1.05542 7.87729e-19 0)
(1.05558 7.89936e-19 0)
(1.05574 7.92136e-19 0)
(1.0559 7.94327e-19 0)
(1.05606 7.9651e-19 0)
(1.05622 7.98686e-19 0)
(1.05637 8.00853e-19 0)
(1.05653 8.03012e-19 0)
(1.05668 8.05164e-19 0)
(1.05683 8.07307e-19 0)
(1.05699 8.09443e-19 0)
(1.05714 8.1157e-19 0)
(1.05729 8.13689e-19 0)
(1.05744 8.15801e-19 0)
(1.05758 8.17904e-19 0)
(1.05773 8.2e-19 0)
(1.05788 8.22088e-19 0)
(1.05802 8.24167e-19 0)
(1.05816 8.26239e-19 0)
(1.05831 8.28303e-19 0)
(1.05845 8.30359e-19 0)
(1.05859 8.32407e-19 0)
(1.05873 8.34447e-19 0)
(1.05887 8.36479e-19 0)
(1.059 8.38503e-19 0)
(1.05914 8.4052e-19 0)
(1.05928 8.42528e-19 0)
(1.05941 8.44529e-19 0)
(1.05954 8.46522e-19 0)
(1.05968 8.48507e-19 0)
(1.05981 8.50484e-19 0)
(1.05994 8.52453e-19 0)
(1.06007 8.54415e-19 0)
(1.0602 8.56369e-19 0)
(1.06032 8.58315e-19 0)
(1.06045 8.60253e-19 0)
(1.06058 8.62184e-19 0)
(1.0607 8.64106e-19 0)
(1.06083 8.66022e-19 0)
(1.06095 8.67929e-19 0)
(1.06107 8.69829e-19 0)
(1.06119 8.71721e-19 0)
(1.06131 8.73605e-19 0)
(1.06143 8.75482e-19 0)
(1.06155 8.77351e-19 0)
(1.06167 8.79213e-19 0)
(1.06178 8.81067e-19 0)
(1.0619 8.82913e-19 0)
(1.06202 8.84752e-19 0)
(1.06213 8.86583e-19 0)
(1.06224 8.88407e-19 0)
(1.06235 8.90224e-19 0)
(1.06247 8.92032e-19 0)
(1.06258 8.93834e-19 0)
(1.06269 8.95628e-19 0)
(1.0628 8.97415e-19 0)
(1.0629 8.99194e-19 0)
(1.06301 9.00966e-19 0)
(1.06312 9.0273e-19 0)
(1.06322 9.04488e-19 0)
(1.06333 9.06238e-19 0)
(1.06343 9.0798e-19 0)
(1.06353 9.09716e-19 0)
(1.06364 9.11444e-19 0)
(1.06374 9.13165e-19 0)
(1.06384 9.14879e-19 0)
(1.06394 9.16586e-19 0)
(1.06404 9.18285e-19 0)
(1.06414 9.19978e-19 0)
(1.06423 9.21663e-19 0)
(1.06433 9.23342e-19 0)
(1.06443 9.25013e-19 0)
(1.06452 9.26678e-19 0)
(1.06462 9.28335e-19 0)
(1.06471 9.29986e-19 0)
(1.0648 9.31629e-19 0)
(1.0649 9.33266e-19 0)
(1.06499 9.34896e-19 0)
(1.06508 9.36519e-19 0)
(1.06517 9.38136e-19 0)
(1.06526 9.39745e-19 0)
(1.06535 9.41348e-19 0)
(1.06543 9.42944e-19 0)
(1.06552 9.44534e-19 0)
(1.06561 9.46117e-19 0)
(1.06569 9.47693e-19 0)
(1.06578 9.49263e-19 0)
(1.06586 9.50826e-19 0)
(1.06595 9.52383e-19 0)
(1.06603 9.53933e-19 0)
(1.06611 9.55477e-19 0)
(1.06619 9.57014e-19 0)
(1.06627 9.58545e-19 0)
(1.06635 9.6007e-19 0)
(1.06643 9.61588e-19 0)
(1.06651 9.631e-19 0)
(1.06659 9.64606e-19 0)
(1.06667 9.66106e-19 0)
(1.06674 9.67599e-19 0)
(1.06682 9.69086e-19 0)
(1.0669 9.70568e-19 0)
(1.06697 9.72043e-19 0)
(1.06705 9.73512e-19 0)
(1.06712 9.74975e-19 0)
(1.06719 9.76432e-19 0)
(1.06726 9.77883e-19 0)
(1.06734 9.79329e-19 0)
(1.06741 9.80768e-19 0)
(1.06748 9.82202e-19 0)
(1.06755 9.8363e-19 0)
(1.06762 9.85052e-19 0)
(1.06769 9.86469e-19 0)
(1.06776 9.8788e-19 0)
(1.06782 9.89285e-19 0)
(1.06789 9.90685e-19 0)
(1.06796 9.92079e-19 0)
(1.06802 9.93467e-19 0)
(1.06809 9.9485e-19 0)
(1.06815 9.96228e-19 0)
(1.06822 9.976e-19 0)
(1.06828 9.98967e-19 0)
(1.06834 1.00033e-18 0)
(1.06841 1.00169e-18 0)
(1.06847 1.00304e-18 0)
(1.06853 1.00438e-18 0)
(1.06859 1.00572e-18 0)
(1.06865 1.00706e-18 0)
(1.06871 1.00839e-18 0)
(1.06877 1.00972e-18 0)
(1.06883 1.01104e-18 0)
(1.06889 1.01235e-18 0)
(1.06895 1.01366e-18 0)
(1.069 1.01497e-18 0)
(1.06906 1.01627e-18 0)
(1.06912 1.01757e-18 0)
(1.06917 1.01886e-18 0)
(1.06923 1.02015e-18 0)
(1.06928 1.02143e-18 0)
(1.06934 1.02271e-18 0)
(1.06939 1.02398e-18 0)
(1.06944 1.02525e-18 0)
(1.0695 1.02651e-18 0)
(1.06955 1.02777e-18 0)
(1.0696 1.02903e-18 0)
(1.06965 1.03028e-18 0)
(1.0697 1.03153e-18 0)
(1.06975 1.03277e-18 0)
(1.0698 1.03401e-18 0)
(1.06985 1.03524e-18 0)
(1.0699 1.03647e-18 0)
(1.06995 1.0377e-18 0)
(1.07 1.03892e-18 0)
(1.07005 1.04014e-18 0)
(1.0701 1.04135e-18 0)
(1.07014 1.04256e-18 0)
(1.07019 1.04377e-18 0)
(1.07024 1.04497e-18 0)
(1.07028 1.04617e-18 0)
(1.07033 1.04737e-18 0)
(1.07037 1.04856e-18 0)
(1.07042 1.04975e-18 0)
(1.07046 1.05093e-18 0)
(1.0705 1.05211e-18 0)
(1.07055 1.05329e-18 0)
(1.07059 1.05447e-18 0)
(1.07063 1.05564e-18 0)
(1.07067 1.0568e-18 0)
(1.07072 1.05797e-18 0)
(1.07076 1.05913e-18 0)
(1.0708 1.06029e-18 0)
(1.07084 1.06144e-18 0)
(1.07088 1.0626e-18 0)
(1.07092 1.06374e-18 0)
(1.07096 1.06489e-18 0)
(1.071 1.06603e-18 0)
(1.07104 1.06717e-18 0)
(1.07107 1.06831e-18 0)
(1.07111 1.06945e-18 0)
(1.07115 1.07058e-18 0)
(1.07119 1.07171e-18 0)
(1.07122 1.07284e-18 0)
(1.07126 1.07396e-18 0)
(1.0713 1.07508e-18 0)
(1.07133 1.0762e-18 0)
(1.07137 1.07732e-18 0)
(1.0714 1.07843e-18 0)
(1.07144 1.07955e-18 0)
(1.07147 1.08066e-18 0)
(1.07151 1.08177e-18 0)
(1.07154 1.08287e-18 0)
(1.07157 1.08398e-18 0)
(1.07161 1.08508e-18 0)
(1.07164 1.08618e-18 0)
(1.07167 1.08728e-18 0)
(1.07171 1.08838e-18 0)
(1.07174 1.08947e-18 0)
(1.07177 1.09056e-18 0)
(1.0718 1.09166e-18 0)
(1.07183 1.09275e-18 0)
(1.07186 1.09383e-18 0)
(1.07189 1.09492e-18 0)
(1.07192 1.09601e-18 0)
(1.07195 1.09709e-18 0)
(1.07198 1.09818e-18 0)
(1.07201 1.09926e-18 0)
(1.07204 1.10034e-18 0)
(1.07207 1.10142e-18 0)
(1.0721 1.1025e-18 0)
(1.07213 1.10357e-18 0)
(1.07215 1.10465e-18 0)
(1.07218 1.10573e-18 0)
(1.07221 1.1068e-18 0)
(1.07224 1.10788e-18 0)
(1.07226 1.10895e-18 0)
(1.07229 1.11002e-18 0)
(1.07232 1.1111e-18 0)
(1.07234 1.11217e-18 0)
(1.07237 1.11324e-18 0)
(1.07239 1.11431e-18 0)
(1.07242 1.11538e-18 0)
(1.07244 1.11645e-18 0)
(1.07247 1.11752e-18 0)
(1.07249 1.11859e-18 0)
(1.07252 1.11966e-18 0)
(1.07254 1.12073e-18 0)
(1.07257 1.1218e-18 0)
(1.07259 1.12287e-18 0)
(1.07261 1.12394e-18 0)
(1.07264 1.12501e-18 0)
(1.07266 1.12609e-18 0)
(1.07268 1.12716e-18 0)
(1.0727 1.12823e-18 0)
(1.07273 1.1293e-18 0)
(1.07275 1.13037e-18 0)
(1.07277 1.13145e-18 0)
(1.07279 1.13252e-18 0)
(1.07281 1.13359e-18 0)
(1.07283 1.13467e-18 0)
(1.07285 1.13575e-18 0)
(1.07288 1.13682e-18 0)
(1.0729 1.1379e-18 0)
(1.07292 1.13898e-18 0)
(1.07294 1.14006e-18 0)
(1.07296 1.14114e-18 0)
(1.07298 1.14222e-18 0)
(1.073 1.14331e-18 0)
(1.07301 1.14439e-18 0)
(1.07303 1.14548e-18 0)
(1.07305 1.14657e-18 0)
(1.07307 1.14765e-18 0)
(1.07309 1.14874e-18 0)
(1.07311 1.14984e-18 0)
(1.07313 1.15093e-18 0)
(1.07314 1.15203e-18 0)
(1.07316 1.15312e-18 0)
(1.07318 1.15422e-18 0)
(1.0732 1.15532e-18 0)
(1.07321 1.15642e-18 0)
(1.07323 1.15753e-18 0)
(1.07325 1.15863e-18 0)
(1.07326 1.15974e-18 0)
(1.07328 1.16085e-18 0)
(1.0733 1.16196e-18 0)
(1.07331 1.16308e-18 0)
(1.07333 1.16419e-18 0)
(1.07335 1.16531e-18 0)
(1.07336 1.16643e-18 0)
(1.07338 1.16756e-18 0)
(1.07339 1.16868e-18 0)
(1.07341 1.16981e-18 0)
(1.07342 1.17094e-18 0)
(1.07344 1.17207e-18 0)
(1.07345 1.17321e-18 0)
(1.07347 1.17434e-18 0)
(1.07348 1.17548e-18 0)
(1.07349 1.17662e-18 0)
(1.07351 1.17777e-18 0)
(1.07352 1.17892e-18 0)
(1.07354 1.18007e-18 0)
(1.07355 1.18122e-18 0)
(1.07356 1.18237e-18 0)
(1.07358 1.18353e-18 0)
(1.07359 1.18469e-18 0)
(1.0736 1.18585e-18 0)
(1.07362 1.18702e-18 0)
(1.07363 1.18818e-18 0)
(1.07364 1.18935e-18 0)
(1.07365 1.19053e-18 0)
(1.07367 1.1917e-18 0)
(1.07368 1.19288e-18 0)
(1.07369 1.19406e-18 0)
(1.0737 1.19525e-18 0)
(1.07372 1.19643e-18 0)
(1.07373 1.19762e-18 0)
(1.07374 1.19881e-18 0)
(1.07375 1.20001e-18 0)
(1.07376 1.20121e-18 0)
(1.07377 1.20241e-18 0)
(1.07378 1.20361e-18 0)
(1.07379 1.20482e-18 0)
(1.07381 1.20602e-18 0)
(1.07382 1.20724e-18 0)
(1.07383 1.20845e-18 0)
(1.07384 1.20967e-18 0)
(1.07385 1.21089e-18 0)
(1.07386 1.21211e-18 0)
(1.07387 1.21334e-18 0)
(1.07388 1.21456e-18 0)
(1.07389 1.21579e-18 0)
(1.0739 1.21703e-18 0)
(1.07391 1.21826e-18 0)
(1.07392 1.2195e-18 0)
(1.07393 1.22075e-18 0)
(1.07394 1.22199e-18 0)
(1.07395 1.22324e-18 0)
(1.07396 1.22449e-18 0)
(1.07396 1.22574e-18 0)
(1.07397 1.227e-18 0)
(1.07398 1.22826e-18 0)
(1.07399 1.22951e-18 0)
(1.074 1.23078e-18 0)
(1.07401 1.23204e-18 0)
(1.07402 1.2333e-18 0)
(1.07403 1.23457e-18 0)
(1.07403 1.23584e-18 0)
(1.07404 1.23711e-18 0)
(1.07405 1.23838e-18 0)
(1.07406 1.23965e-18 0)
(1.07407 1.24093e-18 0)
(1.07408 1.24221e-18 0)
(1.07408 1.24349e-18 0)
(1.07409 1.24477e-18 0)
(1.0741 1.24605e-18 0)
(1.07411 1.24734e-18 0)
(1.07411 1.24863e-18 0)
(1.07412 1.24992e-18 0)
(1.07413 1.25121e-18 0)
(1.07414 1.2525e-18 0)
(1.07414 1.2538e-18 0)
(1.07415 1.25509e-18 0)
(1.07416 1.25639e-18 0)
(1.07416 1.25769e-18 0)
(1.07417 1.259e-18 0)
(1.07418 1.2603e-18 0)
(1.07418 1.26161e-18 0)
(1.07419 1.26291e-18 0)
(1.0742 1.26422e-18 0)
(1.0742 1.26554e-18 0)
(1.07421 1.26685e-18 0)
(1.07422 1.26816e-18 0)
(1.07422 1.26948e-18 0)
(1.07423 1.2708e-18 0)
(1.07423 1.27212e-18 0)
(1.07424 1.27344e-18 0)
(1.07425 1.27477e-18 0)
(1.07425 1.27609e-18 0)
(1.07426 1.27742e-18 0)
(1.07426 1.27875e-18 0)
(1.07427 1.28008e-18 0)
(1.07427 1.28142e-18 0)
(1.07428 1.28275e-18 0)
(1.07429 1.28409e-18 0)
(1.07429 1.28543e-18 0)
(1.0743 1.28677e-18 0)
(1.0743 1.28812e-18 0)
(1.07431 1.28946e-18 0)
(1.07431 1.29081e-18 0)
(1.07432 1.29216e-18 0)
(1.07432 1.29351e-18 0)
(1.07433 1.29487e-18 0)
(1.07433 1.29623e-18 0)
(1.07434 1.29759e-18 0)
(1.07434 1.29895e-18 0)
(1.07435 1.30031e-18 0)
(1.07435 1.30168e-18 0)
(1.07436 1.30306e-18 0)
(1.07436 1.30443e-18 0)
(1.07436 1.30581e-18 0)
(1.07437 1.30719e-18 0)
(1.07437 1.30858e-18 0)
(1.07438 1.30997e-18 0)
(1.07438 1.31136e-18 0)
(1.07439 1.31276e-18 0)
(1.07439 1.31416e-18 0)
(1.07439 1.31557e-18 0)
(1.0744 1.31698e-18 0)
(1.0744 1.31839e-18 0)
(1.07441 1.31982e-18 0)
(1.07441 1.32124e-18 0)
(1.07441 1.32268e-18 0)
(1.07442 1.32411e-18 0)
(1.07442 1.32556e-18 0)
(1.07443 1.32701e-18 0)
(1.07443 1.32847e-18 0)
(1.07443 1.32993e-18 0)
(1.07444 1.33141e-18 0)
(1.07444 1.33289e-18 0)
(1.07444 1.33438e-18 0)
(1.07445 1.33588e-18 0)
(1.07445 1.33738e-18 0)
(1.07445 1.3389e-18 0)
(1.07446 1.34043e-18 0)
(1.07446 1.34196e-18 0)
(1.07446 1.34351e-18 0)
(1.07447 1.34507e-18 0)
(1.07447 1.34664e-18 0)
(1.07447 1.34822e-18 0)
(1.07448 1.34982e-18 0)
(1.07448 1.35143e-18 0)
(1.07448 1.35305e-18 0)
(1.07449 1.35469e-18 0)
(1.07449 1.35634e-18 0)
(1.07449 1.35801e-18 0)
(1.07449 1.35969e-18 0)
(1.0745 1.36139e-18 0)
(1.0745 1.36311e-18 0)
(1.0745 1.36485e-18 0)
(1.07451 1.3666e-18 0)
(1.07451 1.36838e-18 0)
(1.07451 1.37017e-18 0)
(1.07451 1.37199e-18 0)
(1.07452 1.37383e-18 0)
(1.07452 1.37569e-18 0)
(1.07452 1.37758e-18 0)
(1.07452 1.37949e-18 0)
(1.07453 1.38142e-18 0)
(1.07453 1.38338e-18 0)
(1.07453 1.38537e-18 0)
(1.07453 1.38739e-18 0)
(1.07454 1.38943e-18 0)
(1.07454 1.3915e-18 0)
(1.07454 1.39361e-18 0)
(1.07454 1.39575e-18 0)
(1.07454 1.39791e-18 0)
(1.07455 1.40012e-18 0)
(1.07455 1.40235e-18 0)
(1.07455 1.40463e-18 0)
(1.07455 1.40694e-18 0)
(1.07455 1.40928e-18 0)
(1.07456 1.41167e-18 0)
(1.07456 1.4141e-18 0)
(1.07456 1.41657e-18 0)
(1.07456 1.41908e-18 0)
(1.07456 1.42164e-18 0)
(1.07457 1.42424e-18 0)
(1.07457 1.42688e-18 0)
(1.07457 1.42958e-18 0)
(1.07457 1.43232e-18 0)
(1.07457 1.43512e-18 0)
(1.07457 1.43796e-18 0)
(1.07458 1.44086e-18 0)
(1.07458 1.44382e-18 0)
(1.07458 1.44683e-18 0)
(1.07458 1.44989e-18 0)
(1.07458 1.45302e-18 0)
(1.07458 1.45621e-18 0)
(1.07459 1.45946e-18 0)
(1.07459 1.46277e-18 0)
(1.07459 1.46614e-18 0)
(1.07459 1.46958e-18 0)
(1.07459 1.47309e-18 0)
(1.07459 1.47667e-18 0)
(1.07459 1.48031e-18 0)
(1.0746 1.48403e-18 0)
(1.0746 1.48782e-18 0)
(1.0746 1.49168e-18 0)
(1.0746 1.49561e-18 0)
(1.0746 1.49962e-18 0)
(1.0746 1.50371e-18 0)
(1.0746 1.50786e-18 0)
(1.0746 1.5121e-18 0)
(1.0746 1.5164e-18 0)
(1.07461 1.52079e-18 0)
(1.07461 1.52524e-18 0)
(1.07461 1.52977e-18 0)
(1.07461 1.53437e-18 0)
(1.07461 1.53904e-18 0)
(1.07461 1.54378e-18 0)
(1.07461 1.54858e-18 0)
(1.07461 1.55345e-18 0)
(1.07461 1.55837e-18 0)
(1.07461 1.56335e-18 0)
(1.07462 1.56838e-18 0)
(1.07462 1.57345e-18 0)
(1.07462 1.57855e-18 0)
(1.07462 1.58369e-18 0)
(1.07462 1.58885e-18 0)
(1.07462 1.59402e-18 0)
(1.07462 1.59919e-18 0)
(1.07462 1.60435e-18 0)
(1.07462 1.6095e-18 0)
(1.07462 1.6146e-18 0)
(1.07462 1.61966e-18 0)
(1.07462 1.62466e-18 0)
(1.07462 1.62957e-18 0)
(1.07463 1.63439e-18 0)
(1.07463 1.63908e-18 0)
(1.07463 1.64364e-18 0)
(1.07463 1.64803e-18 0)
(1.07463 1.65223e-18 0)
(1.07463 1.65622e-18 0)
(1.07463 1.65996e-18 0)
(1.07463 1.66344e-18 0)
(1.07463 1.66661e-18 0)
(1.07463 1.66946e-18 0)
(1.07463 1.67194e-18 0)
(1.07463 1.67404e-18 0)
(1.07463 1.67572e-18 0)
(1.07463 1.67696e-18 0)
(1.07463 1.67774e-18 0)
(1.07463 1.67806e-18 0)
(1.07463 1.6779e-18 0)
(1.07463 1.67727e-18 0)
(1.07463 1.67619e-18 0)
(1.07463 1.6747e-18 0)
(1.07463 1.67284e-18 0)
(1.07463 1.67067e-18 0)
(1.07463 1.66824e-18 0)
(1.07463 1.66561e-18 0)
(1.07463 1.66283e-18 0)
(1.07463 1.65991e-18 0)
(1.07463 1.65677e-18 0)
(1.07463 1.65326e-18 0)
(1.07463 1.64906e-18 0)
(1.07463 1.64364e-18 0)
(1.07463 1.63626e-18 0)
(1.07463 1.6257e-18 0)
(1.07463 1.61183e-18 0)
(1.07463 1.57613e-18 0)
(1.07463 1.59482e-18 0)
(1.07463 1.62621e-18 0)
(1.07463 1.62399e-18 0)
(1.07463 1.63908e-18 0)
(1.07463 1.60404e-18 0)
(1.07463 1.5795e-18 0)
(1.07463 1.62731e-18 0)
(1.07463 1.67303e-18 0)
(1.07463 1.64196e-18 0)
(1.07463 1.60167e-18 0)
(1.07463 1.62638e-18 0)
(1.07463 1.64624e-18 0)
(1.07463 1.65938e-18 0)
(1.07463 1.65988e-18 0)
(1.07463 1.63721e-18 0)
(1.07463 1.64065e-18 0)
(1.07463 1.70085e-18 0)
(1.07463 1.74124e-18 0)
(1.07463 1.69379e-18 0)
(1.07463 1.64637e-18 0)
(1.07463 1.61912e-18 0)
(1.07463 1.60603e-18 0)
(1.07463 1.59277e-18 0)
(1.07463 1.54336e-18 0)
(1.07463 1.3647e-18 0)
(1.07463 1.19828e-18 0)
(1.07463 1.18333e-18 0)
(1.07463 1.1751e-18 0)
(1.07462 1.21753e-18 0)
(1.07462 1.26506e-18 0)
(1.07462 1.26788e-18 0)
(1.07462 1.25857e-18 0)
(1.07462 1.18204e-18 0)
(1.07462 1.10705e-18 0)
(1.07462 1.09952e-18 0)
(1.07462 1.14049e-18 0)
(1.07462 1.24223e-18 0)
(1.07462 1.34001e-18 0)
(1.07462 1.37991e-18 0)
(1.07462 1.38469e-18 0)
(1.07462 1.27508e-18 0)
(1.07461 1.16243e-18 0)
(1.07461 1.15674e-18 0)
(1.07461 1.20028e-18 0)
(1.07461 1.30761e-18 0)
(1.07461 1.4079e-18 0)
(1.07461 1.42976e-18 0)
(1.07461 1.39038e-18 0)
(1.07461 1.34549e-18 0)
(1.07461 1.30315e-18 0)
(1.07461 1.26862e-18 0)
(1.0746 1.24418e-18 0)
(1.0746 1.08423e-18 0)
(1.0746 9.24842e-19 0)
(1.0746 9.11675e-19 0)
(1.0746 9.54098e-19 0)
(1.0746 1.06599e-18 0)
(1.0746 1.17646e-18 0)
(1.0746 1.21817e-18 0)
(1.0746 1.24333e-18 0)
(1.07459 1.26447e-18 0)
(1.07459 1.28362e-18 0)
(1.07459 1.29988e-18 0)
(1.07459 1.27469e-18 0)
(1.07459 1.14441e-18 0)
(1.07459 1.01759e-18 0)
(1.07459 1.01303e-18 0)
(1.07458 1.01115e-18 0)
(1.07458 9.98922e-19 0)
(1.07458 9.77236e-19 0)
(1.07458 9.47636e-19 0)
(1.07458 9.75173e-19 0)
(1.07458 9.28697e-19 0)
(1.07457 8.7599e-19 0)
(1.07457 8.97238e-19 0)
(1.07457 8.65531e-19 0)
(1.07457 9.11557e-19 0)
(1.07457 9.66762e-19 0)
(1.07457 9.53269e-19 0)
(1.07456 9.45629e-19 0)
(1.07456 8.23298e-19 0)
(1.07456 6.88445e-19 0)
(1.07456 6.46311e-19 0)
(1.07456 6.26559e-19 0)
(1.07455 6.07311e-19 0)
(1.07455 6.45552e-19 0)
(1.07455 7.29684e-19 0)
(1.07455 7.05811e-19 0)
(1.07455 6.64904e-19 0)
(1.07454 6.90024e-19 0)
(1.07454 7.28757e-19 0)
(1.07454 7.37576e-19 0)
(1.07454 6.82603e-19 0)
(1.07454 6.3225e-19 0)
(1.07453 5.90314e-19 0)
(1.07453 5.67981e-19 0)
(1.07453 7.08155e-19 0)
(1.07453 8.59646e-19 0)
(1.07452 8.72932e-19 0)
(1.07452 8.81e-19 0)
(1.07452 1.02399e-18 0)
(1.07452 1.18575e-18 0)
(1.07451 1.24047e-18 0)
(1.07451 1.26874e-18 0)
(1.07451 1.27467e-18 0)
(1.07451 1.28137e-18 0)
(1.0745 1.30807e-18 0)
(1.0745 1.31567e-18 0)
(1.0745 1.281e-18 0)
(1.07449 1.2276e-18 0)
(1.07449 1.18616e-18 0)
(1.07449 1.18605e-18 0)
(1.07449 1.23129e-18 0)
(1.07448 1.28382e-18 0)
(1.07448 1.29332e-18 0)
(1.07448 1.25123e-18 0)
(1.07447 1.13267e-18 0)
(1.07447 1.01607e-18 0)
(1.07447 9.81363e-19 0)
(1.07446 9.62117e-19 0)
(1.07446 8.90686e-19 0)
(1.07446 8.12738e-19 0)
(1.07445 7.88769e-19 0)
(1.07445 7.95758e-19 0)
(1.07445 7.89246e-19 0)
(1.07444 6.34831e-19 0)
(1.07444 4.81507e-19 0)
(1.07444 4.79573e-19 0)
(1.07443 4.69664e-19 0)
(1.07443 5.33197e-19 0)
(1.07443 5.96365e-19 0)
(1.07442 5.86134e-19 0)
(1.07442 5.73416e-19 0)
(1.07441 5.52977e-19 0)
(1.07441 5.41851e-19 0)
(1.07441 5.51361e-19 0)
(1.0744 5.68584e-19 0)
(1.0744 5.71942e-19 0)
(1.07439 5.71979e-19 0)
(1.07439 5.7761e-19 0)
(1.07439 5.88286e-19 0)
(1.07438 6.05212e-19 0)
(1.07438 6.04957e-19 0)
(1.07437 5.71801e-19 0)
(1.07437 5.69406e-19 0)
(1.07436 6.66696e-19 0)
(1.07436 7.52463e-19 0)
(1.07436 7.22302e-19 0)
(1.07435 6.4738e-19 0)
(1.07435 6.41271e-19 0)
(1.07434 6.44371e-19 0)
(1.07434 5.93028e-19 0)
(1.07433 5.95316e-19 0)
(1.07433 7.47701e-19 0)
(1.07432 9.14486e-19 0)
(1.07432 9.64029e-19 0)
(1.07431 1.02755e-18 0)
(1.07431 1.1911e-18 0)
(1.0743 1.35128e-18 0)
(1.0743 1.41342e-18 0)
(1.07429 1.4592e-18 0)
(1.07429 1.52594e-18 0)
(1.07428 1.59785e-18 0)
(1.07427 1.64871e-18 0)
(1.07427 1.66398e-18 0)
(1.07426 1.64013e-18 0)
(1.07426 1.61979e-18 0)
(1.07425 1.64743e-18 0)
(1.07425 1.68792e-18 0)
(1.07424 1.65689e-18 0)
(1.07423 1.62054e-18 0)
(1.07423 1.66092e-18 0)
(1.07422 1.67715e-18 0)
(1.07422 1.67417e-18 0)
(1.07421 1.72711e-18 0)
(1.0742 1.78489e-18 0)
(1.0742 1.78207e-18 0)
(1.07419 1.73222e-18 0)
(1.07418 1.691e-18 0)
(1.07418 1.70193e-18 0)
(1.07417 1.66106e-18 0)
(1.07416 1.6427e-18 0)
(1.07416 1.62647e-18 0)
(1.07415 1.53104e-18 0)
(1.07414 1.55748e-18 0)
(1.07414 1.68642e-18 0)
(1.07413 1.81044e-18 0)
(1.07412 1.88171e-18 0)
(1.07411 1.88984e-18 0)
(1.07411 1.90691e-18 0)
(1.0741 1.92317e-18 0)
(1.07409 1.9256e-18 0)
(1.07408 1.93681e-18 0)
(1.07408 1.95024e-18 0)
(1.07407 1.97856e-18 0)
(1.07406 2.02995e-18 0)
(1.07405 2.01138e-18 0)
(1.07404 1.85888e-18 0)
(1.07403 1.70577e-18 0)
(1.07403 1.687e-18 0)
(1.07402 1.73585e-18 0)
(1.07401 1.76346e-18 0)
(1.074 1.78509e-18 0)
(1.07399 1.82296e-18 0)
(1.07398 1.86906e-18 0)