/*--------------------------------*- C++ -*----------------------------------*\
| =========                 |                                                 |
| \\      /  F ield         | OpenFOAM: The Open Source CFD Toolbox           |
|  \\    /   O peration     | Version:  2312                                  |
|   \\  /    A nd           | Website:  www.openfoam.com                      |
|    \\/     M anipulation  |                                                 |
\*---------------------------------------------------------------------------*/
FoamFile
{
    version     2.0;
    format      ascii;
    arch        "LSB;label=32;scalar=64";
    class       volScalarField;
    location    "12.47";
    object      k;
}
// * * * * * * * * * * * * * * * * * * * * * * * * * * * * * * * * * * * * * //

dimensions      [0 2 -2 0 0 0 0];

internalField   nonuniform List<scalar> 
1000
(
0.00447464
0.00450685
0.0052972
0.00589041
0.0063004
0.00659303
0.00680984
0.00697542
0.00710489
0.00720793
0.00729105
0.00735877
0.00741432
0.00746008
0.00749784
0.00752898
0.00755457
0.00757545
0.00759232
0.00760572
0.00761611
0.00762386
0.0076293
0.00763269
0.00763424
0.00763417
0.00763262
0.00762975
0.00762568
0.00762052
0.00761436
0.00760729
0.00759939
0.00759071
0.00758132
0.00757127
0.00756062
0.00754939
0.00753764
0.00752539
0.00751267
0.00749953
0.00748597
0.00747204
0.00745774
0.0074431
0.00742813
0.00741286
0.00739731
0.00738148
0.00736538
0.00734904
0.00733247
0.00731567
0.00729865
0.00728143
0.00726402
0.00724641
0.00722863
0.00721068
0.00719256
0.00717429
0.00715586
0.00713729
0.00711857
0.00709973
0.00708075
0.00706165
0.00704244
0.0070231
0.00700366
0.00698411
0.00696446
0.00694471
0.00692487
0.00690493
0.00688491
0.0068648
0.00684461
0.00682434
0.00680399
0.00678357
0.00676309
0.00674253
0.00672191
0.00670123
0.00668049
0.00665969
0.00663883
0.00661793
0.00659697
0.00657596
0.00655491
0.00653381
0.00651267
0.00649149
0.00647027
0.00644902
0.00642773
0.0064064
0.00638505
0.00636366
0.00634225
0.00632081
0.00629935
0.00627787
0.00625636
0.00623484
0.00621329
0.00619173
0.00617015
0.00614856
0.00612696
0.00610535
0.00608373
0.0060621
0.00604046
0.00601882
0.00599718
0.00597553
0.00595388
0.00593223
0.00591058
0.00588894
0.0058673
0.00584566
0.00582403
0.00580241
0.00578079
0.00575919
0.0057376
0.00571602
0.00569445
0.0056729
0.00565136
0.00562984
0.00560833
0.00558685
0.00556538
0.00554394
0.00552252
0.00550112
0.00547974
0.00545839
0.00543707
0.00541577
0.0053945
0.00537326
0.00535204
0.00533086
0.00530971
0.00528859
0.00526751
0.00524646
0.00522544
0.00520447
0.00518352
0.00516262
0.00514175
0.00512093
0.00510014
0.00507939
0.00505869
0.00503803
0.00501741
0.00499683
0.0049763
0.00495582
0.00493538
0.00491499
0.00489465
0.00487435
0.00485411
0.00483391
0.00481377
0.00479367
0.00477363
0.00475364
0.00473371
0.00471382
0.004694
0.00467422
0.00465451
0.00463485
0.00461524
0.00459569
0.00457621
0.00455678
0.00453741
0.00451809
0.00449884
0.00447965
0.00446053
0.00444146
0.00442246
0.00440351
0.00438464
0.00436582
0.00434707
0.00432839
0.00430977
0.00429122
0.00427273
0.00425431
0.00423596
0.00421768
0.00419946
0.00418131
0.00416323
0.00414522
0.00412728
0.00410942
0.00409162
0.00407389
0.00405623
0.00403865
0.00402114
0.0040037
0.00398633
0.00396904
0.00395182
0.00393468
0.00391761
0.00390061
0.00388369
0.00386685
0.00385008
0.00383339
0.00381677
0.00380023
0.00378377
0.00376739
0.00375108
0.00373485
0.0037187
0.00370263
0.00368664
0.00367072
0.00365489
0.00363914
0.00362346
0.00360787
0.00359236
0.00357692
0.00356157
0.00354631
0.00353112
0.00351601
0.00350099
0.00348605
0.0034712
0.00345642
0.00344173
0.00342712
0.0034126
0.00339816
0.00338381
0.00336954
0.00335535
0.00334125
0.00332724
0.00331331
0.00329946
0.0032857
0.00327203
0.00325845
0.00324495
0.00323153
0.00321821
0.00320497
0.00319182
0.00317876
0.00316578
0.00315289
0.00314009
0.00312738
0.00311476
0.00310222
0.00308978
0.00307742
0.00306515
0.00305297
0.00304088
0.00302888
0.00301697
0.00300515
0.00299342
0.00298178
0.00297023
0.00295877
0.00294741
0.00293613
0.00292494
0.00291384
0.00290284
0.00289192
0.0028811
0.00287037
0.00285973
0.00284918
0.00283872
0.00282835
0.00281808
0.00280789
0.0027978
0.0027878
0.00277789
0.00276807
0.00275835
0.00274871
0.00273917
0.00272972
0.00272036
0.0027111
0.00270192
0.00269284
0.00268384
0.00267494
0.00266613
0.00265741
0.00264879
0.00264025
0.0026318
0.00262345
0.00261518
0.00260701
0.00259893
0.00259093
0.00258303
0.00257522
0.00256749
0.00255986
0.00255231
0.00254486
0.00253749
0.00253021
0.00252302
0.00251591
0.0025089
0.00250197
0.00249513
0.00248838
0.00248171
0.00247513
0.00246863
0.00246222
0.00245589
0.00244965
0.00244349
0.00243742
0.00243143
0.00242552
0.00241969
0.00241395
0.00240829
0.00240271
0.00239721
0.00239178
0.00238644
0.00238118
0.002376
0.00237089
0.00236586
0.00236091
0.00235603
0.00235123
0.00234651
0.00234186
0.00233728
0.00233278
0.00232835
0.00232399
0.0023197
0.00231548
0.00231133
0.00230725
0.00230325
0.0022993
0.00229543
0.00229162
0.00228788
0.00228421
0.00228059
0.00227705
0.00227356
0.00227014
0.00226678
0.00226348
0.00226024
0.00225706
0.00225394
0.00225088
0.00224788
0.00224493
0.00224204
0.0022392
0.00223642
0.00223369
0.00223102
0.0022284
0.00222583
0.00222331
0.00222084
0.00221842
0.00221605
0.00221373
0.00221146
0.00220923
0.00220705
0.00220491
0.00220282
0.00220077
0.00219877
0.00219681
0.00219489
0.00219301
0.00219117
0.00218938
0.00218762
0.0021859
0.00218422
0.00218258
0.00218097
0.0021794
0.00217787
0.00217637
0.00217491
0.00217347
0.00217208
0.00217071
0.00216938
0.00216808
0.00216681
0.00216557
0.00216436
0.00216318
0.00216203
0.00216091
0.00215982
0.00215875
0.00215771
0.0021567
0.00215571
0.00215475
0.00215381
0.0021529
0.00215201
0.00215115
0.00215031
0.00214949
0.0021487
0.00214792
0.00214717
0.00214644
0.00214573
0.00214505
0.00214438
0.00214373
0.0021431
0.0021425
0.00214191
0.00214134
0.00214078
0.00214025
0.00213973
0.00213923
0.00213875
0.00213829
0.00213784
0.00213741
0.00213699
0.00213659
0.00213621
0.00213584
0.00213549
0.00213515
0.00213483
0.00213452
0.00213423
0.00213395
0.00213368
0.00213343
0.0021332
0.00213298
0.00213277
0.00213257
0.00213239
0.00213222
0.00213207
0.00213193
0.0021318
0.00213168
0.00213158
0.00213149
0.00213141
0.00213135
0.0021313
0.00213126
0.00213123
0.00213122
0.00213122
0.00213123
0.00213126
0.0021313
0.00213135
0.00213141
0.00213149
0.00213158
0.00213168
0.00213179
0.00213192
0.00213206
0.00213222
0.00213239
0.00213257
0.00213276
0.00213297
0.00213319
0.00213343
0.00213368
0.00213394
0.00213422
0.00213452
0.00213482
0.00213515
0.00213548
0.00213584
0.0021362
0.00213659
0.00213699
0.0021374
0.00213783
0.00213828
0.00213875
0.00213923
0.00213973
0.00214024
0.00214078
0.00214133
0.0021419
0.00214249
0.0021431
0.00214373
0.00214438
0.00214504
0.00214573
0.00214644
0.00214717
0.00214792
0.00214869
0.00214949
0.0021503
0.00215114
0.00215201
0.0021529
0.00215381
0.00215474
0.00215571
0.00215669
0.00215771
0.00215875
0.00215981
0.00216091
0.00216203
0.00216318
0.00216436
0.00216557
0.00216681
0.00216808
0.00216938
0.00217071
0.00217207
0.00217347
0.0021749
0.00217637
0.00217786
0.0021794
0.00218097
0.00218257
0.00218422
0.0021859
0.00218762
0.00218937
0.00219117
0.00219301
0.00219488
0.0021968
0.00219876
0.00220077
0.00220281
0.00220491
0.00220704
0.00220922
0.00221145
0.00221372
0.00221605
0.00221842
0.00222084
0.0022233
0.00222582
0.00222839
0.00223101
0.00223369
0.00223642
0.0022392
0.00224203
0.00224492
0.00224787
0.00225088
0.00225394
0.00225706
0.00226024
0.00226347
0.00226677
0.00227013
0.00227356
0.00227704
0.00228059
0.0022842
0.00228787
0.00229162
0.00229542
0.0022993
0.00230324
0.00230725
0.00231133
0.00231547
0.00231969
0.00232398
0.00232834
0.00233277
0.00233727
0.00234185
0.0023465
0.00235123
0.00235603
0.0023609
0.00236586
0.00237088
0.00237599
0.00238117
0.00238644
0.00239178
0.0023972
0.0024027
0.00240828
0.00241394
0.00241969
0.00242551
0.00243142
0.00243741
0.00244349
0.00244964
0.00245589
0.00246221
0.00246862
0.00247512
0.0024817
0.00248837
0.00249513
0.00250197
0.0025089
0.00251591
0.00252301
0.00253021
0.00253748
0.00254485
0.00255231
0.00255985
0.00256749
0.00257521
0.00258303
0.00259093
0.00259892
0.00260701
0.00261518
0.00262345
0.0026318
0.00264025
0.00264878
0.00265741
0.00266613
0.00267494
0.00268384
0.00269283
0.00270192
0.00271109
0.00272036
0.00272972
0.00273917
0.00274871
0.00275835
0.00276807
0.00277789
0.0027878
0.0027978
0.00280789
0.00281808
0.00282835
0.00283872
0.00284918
0.00285973
0.00287037
0.0028811
0.00289192
0.00290284
0.00291384
0.00292494
0.00293613
0.00294741
0.00295878
0.00297023
0.00298178
0.00299342
0.00300515
0.00301697
0.00302888
0.00304088
0.00305297
0.00306515
0.00307742
0.00308978
0.00310222
0.00311476
0.00312738
0.00314009
0.00315289
0.00316578
0.00317876
0.00319182
0.00320497
0.00321821
0.00323154
0.00324495
0.00325845
0.00327203
0.00328571
0.00329947
0.00331331
0.00332724
0.00334125
0.00335535
0.00336954
0.00338381
0.00339817
0.0034126
0.00342713
0.00344173
0.00345642
0.0034712
0.00348606
0.003501
0.00351602
0.00353112
0.00354631
0.00356158
0.00357693
0.00359236
0.00360787
0.00362346
0.00363914
0.00365489
0.00367073
0.00368664
0.00370263
0.0037187
0.00373485
0.00375108
0.00376739
0.00378377
0.00380023
0.00381677
0.00383339
0.00385008
0.00386685
0.0038837
0.00390062
0.00391761
0.00393468
0.00395183
0.00396904
0.00398634
0.0040037
0.00402114
0.00403865
0.00405624
0.00407389
0.00409162
0.00410942
0.00412729
0.00414523
0.00416324
0.00418132
0.00419946
0.00421768
0.00423596
0.00425432
0.00427274
0.00429122
0.00430977
0.00432839
0.00434708
0.00436583
0.00438464
0.00440352
0.00442246
0.00444146
0.00446053
0.00447966
0.00449885
0.0045181
0.00453741
0.00455678
0.00457621
0.0045957
0.00461524
0.00463485
0.00465451
0.00467423
0.004694
0.00471383
0.00473371
0.00475365
0.00477364
0.00479368
0.00481377
0.00483392
0.00485411
0.00487436
0.00489465
0.00491499
0.00493538
0.00495582
0.00497631
0.00499684
0.00501741
0.00503803
0.00505869
0.00507939
0.00510014
0.00512093
0.00514175
0.00516262
0.00518353
0.00520447
0.00522545
0.00524646
0.00526751
0.0052886
0.00530971
0.00533086
0.00535205
0.00537326
0.0053945
0.00541577
0.00543707
0.00545839
0.00547974
0.00550112
0.00552252
0.00554394
0.00556539
0.00558685
0.00560834
0.00562984
0.00565136
0.0056729
0.00569445
0.00571602
0.0057376
0.00575919
0.0057808
0.00580241
0.00582403
0.00584566
0.0058673
0.00588894
0.00591058
0.00593223
0.00595388
0.00597553
0.00599718
0.00601882
0.00604046
0.0060621
0.00608373
0.00610535
0.00612696
0.00614857
0.00617016
0.00619173
0.00621329
0.00623484
0.00625636
0.00627787
0.00629935
0.00632082
0.00634225
0.00636367
0.00638505
0.0064064
0.00642773
0.00644902
0.00647027
0.00649149
0.00651267
0.00653381
0.00655491
0.00657596
0.00659697
0.00661793
0.00663883
0.00665969
0.00668049
0.00670123
0.00672191
0.00674253
0.00676309
0.00678357
0.00680399
0.00682434
0.00684461
0.0068648
0.00688491
0.00690493
0.00692487
0.00694471
0.00696446
0.00698411
0.00700366
0.0070231
0.00704244
0.00706166
0.00708075
0.00709973
0.00711857
0.00713729
0.00715586
0.00717429
0.00719256
0.00721068
0.00722863
0.00724642
0.00726402
0.00728143
0.00729865
0.00731567
0.00733247
0.00734905
0.00736539
0.00738148
0.00739731
0.00741287
0.00742813
0.0074431
0.00745774
0.00747204
0.00748597
0.00749953
0.00751267
0.00752539
0.00753764
0.00754939
0.00756062
0.00757128
0.00758132
0.00759071
0.00759939
0.00760729
0.00761436
0.00762052
0.00762568
0.00762975
0.00763262
0.00763417
0.00763424
0.00763269
0.0076293
0.00762387
0.00761611
0.00760572
0.00759232
0.00757545
0.00755457
0.00752898
0.00749784
0.00746008
0.00741432
0.00735877
0.00729105
0.00720793
0.00710489
0.00697542
0.00680984
0.00659303
0.0063004
0.00589041
0.0052972
0.00450685
0.00447464
)
;

boundaryField
{
    top_wall
    {
        type            kLowReWallFunction;
        value           uniform 9.01498e-05;
    }
    inlet
    {
        type            cyclic;
    }
    bot_wall
    {
        type            kLowReWallFunction;
        value           uniform 9.01497e-05;
    }
    outlet
    {
        type            cyclic;
    }
    frontAndBack
    {
        type            empty;
    }
}


// ************************************************************************* //
