/*--------------------------------*- C++ -*----------------------------------*\
| =========                 |                                                 |
| \\      /  F ield         | OpenFOAM: The Open Source CFD Toolbox           |
|  \\    /   O peration     | Version:  2312                                  |
|   \\  /    A nd           | Website:  www.openfoam.com                      |
|    \\/     M anipulation  |                                                 |
\*---------------------------------------------------------------------------*/
FoamFile
{
    version     2.0;
    format      ascii;
    arch        "LSB;label=32;scalar=64";
    class       volVectorField;
    location    "12.47";
    object      U;
}
// * * * * * * * * * * * * * * * * * * * * * * * * * * * * * * * * * * * * * //

dimensions      [0 1 -1 0 0 0 0];

internalField   nonuniform List<vector> 
1000
(
(0.0512216 -2.34961e-19 0)
(0.120928 -1.17859e-18 0)
(0.171729 -8.6027e-19 0)
(0.208399 -8.78653e-19 0)
(0.236557 -8.59255e-19 0)
(0.259359 -8.57786e-19 0)
(0.278538 -8.87097e-19 0)
(0.295113 -8.79196e-19 0)
(0.309729 -7.37849e-19 0)
(0.322817 -6.00888e-19 0)
(0.334682 -6.38987e-19 0)
(0.345542 -7.09294e-19 0)
(0.355564 -7.7714e-19 0)
(0.364874 -8.50358e-19 0)
(0.373574 -8.79315e-19 0)
(0.381743 -9.00701e-19 0)
(0.389445 -9.0785e-19 0)
(0.396737 -8.99745e-19 0)
(0.403661 -8.93873e-19 0)
(0.410255 -8.8968e-19 0)
(0.416553 -8.86708e-19 0)
(0.422582 -8.84593e-19 0)
(0.428365 -8.8306e-19 0)
(0.433924 -8.81911e-19 0)
(0.439276 -8.81004e-19 0)
(0.444438 -8.80249e-19 0)
(0.449425 -8.79588e-19 0)
(0.454248 -8.78991e-19 0)
(0.458919 -8.78446e-19 0)
(0.463448 -8.77954e-19 0)
(0.467845 -8.77524e-19 0)
(0.472118 -8.7717e-19 0)
(0.476274 -8.7691e-19 0)
(0.48032 -8.76762e-19 0)
(0.484263 -8.76747e-19 0)
(0.488108 -8.76882e-19 0)
(0.491861 -8.77188e-19 0)
(0.495526 -8.77681e-19 0)
(0.499107 -8.78378e-19 0)
(0.50261 -8.79296e-19 0)
(0.506037 -8.80449e-19 0)
(0.509393 -8.81851e-19 0)
(0.512681 -8.83515e-19 0)
(0.515903 -8.85454e-19 0)
(0.519063 -8.87678e-19 0)
(0.522163 -8.902e-19 0)
(0.525206 -8.93027e-19 0)
(0.528194 -8.96171e-19 0)
(0.531129 -8.99639e-19 0)
(0.534014 -9.0344e-19 0)
(0.53685 -9.07581e-19 0)
(0.539639 -9.12071e-19 0)
(0.542383 -9.16915e-19 0)
(0.545084 -9.2212e-19 0)
(0.547743 -9.27693e-19 0)
(0.550361 -9.3364e-19 0)
(0.552941 -9.39964e-19 0)
(0.555483 -9.46674e-19 0)
(0.557988 -9.53772e-19 0)
(0.560458 -9.61263e-19 0)
(0.562893 -9.69153e-19 0)
(0.565296 -9.77445e-19 0)
(0.567667 -9.86144e-19 0)
(0.570006 -9.95252e-19 0)
(0.572315 -1.00477e-18 0)
(0.574595 -1.01471e-18 0)
(0.576847 -1.02507e-18 0)
(0.579071 -1.03584e-18 0)
(0.581268 -1.04704e-18 0)
(0.583439 -1.05866e-18 0)
(0.585584 -1.07071e-18 0)
(0.587705 -1.08318e-18 0)
(0.589801 -1.09608e-18 0)
(0.591874 -1.10939e-18 0)
(0.593925 -1.12312e-18 0)
(0.595953 -1.13727e-18 0)
(0.597959 -1.15183e-18 0)
(0.599944 -1.1668e-18 0)
(0.601908 -1.18216e-18 0)
(0.603852 -1.19791e-18 0)
(0.605776 -1.21404e-18 0)
(0.607681 -1.23054e-18 0)
(0.609568 -1.24738e-18 0)
(0.611435 -1.26456e-18 0)
(0.613285 -1.28205e-18 0)
(0.615117 -1.29983e-18 0)
(0.616932 -1.31788e-18 0)
(0.61873 -1.33617e-18 0)
(0.620511 -1.35466e-18 0)
(0.622277 -1.37332e-18 0)
(0.624026 -1.39211e-18 0)
(0.62576 -1.41098e-18 0)
(0.627478 -1.42988e-18 0)
(0.629182 -1.44875e-18 0)
(0.630871 -1.46754e-18 0)
(0.632546 -1.48618e-18 0)
(0.634207 -1.5046e-18 0)
(0.635854 -1.52271e-18 0)
(0.637487 -1.54043e-18 0)
(0.639107 -1.55768e-18 0)
(0.640714 -1.57436e-18 0)
(0.642308 -1.59037e-18 0)
(0.643889 -1.60563e-18 0)
(0.645459 -1.62003e-18 0)
(0.647016 -1.63345e-18 0)
(0.648561 -1.64615e-18 0)
(0.650094 -1.65798e-18 0)
(0.651616 -1.66878e-18 0)
(0.653126 -1.67839e-18 0)
(0.654625 -1.68665e-18 0)
(0.656113 -1.69339e-18 0)
(0.657591 -1.69843e-18 0)
(0.659057 -1.70157e-18 0)
(0.660513 -1.703e-18 0)
(0.661959 -1.70252e-18 0)
(0.663395 -1.69997e-18 0)
(0.664821 -1.69512e-18 0)
(0.666237 -1.68776e-18 0)
(0.667643 -1.67763e-18 0)
(0.669039 -1.66443e-18 0)
(0.670426 -1.64784e-18 0)
(0.671804 -1.6279e-18 0)
(0.673173 -1.60421e-18 0)
(0.674533 -1.57632e-18 0)
(0.675883 -1.54372e-18 0)
(0.677225 -1.50618e-18 0)
(0.678559 -1.46303e-18 0)
(0.679884 -1.41388e-18 0)
(0.6812 -1.3579e-18 0)
(0.682508 -1.29453e-18 0)
(0.683808 -1.22315e-18 0)
(0.6851 -1.14273e-18 0)
(0.686383 -1.05294e-18 0)
(0.687659 -9.53102e-19 0)
(0.688927 -8.4264e-19 0)
(0.690188 -7.20354e-19 0)
(0.691441 -5.97727e-19 0)
(0.692686 -4.86639e-19 0)
(0.693924 -3.87975e-19 0)
(0.695155 -2.83114e-19 0)
(0.696378 -7.81456e-20 0)
(0.697594 1.28507e-19 0)
(0.698804 2.39323e-19 0)
(0.700006 3.3656e-19 0)
(0.701201 4.27111e-19 0)
(0.70239 5.09989e-19 0)
(0.703572 5.84762e-19 0)
(0.704747 6.51406e-19 0)
(0.705915 7.10159e-19 0)
(0.707078 7.61386e-19 0)
(0.708233 8.05513e-19 0)
(0.709383 8.42948e-19 0)
(0.710526 8.74415e-19 0)
(0.711663 9.00171e-19 0)
(0.712793 9.20742e-19 0)
(0.713918 9.36183e-19 0)
(0.715036 9.46785e-19 0)
(0.716149 9.52723e-19 0)
(0.717256 9.54076e-19 0)
(0.718357 9.50845e-19 0)
(0.719452 9.43319e-19 0)
(0.720541 9.31401e-19 0)
(0.721625 9.15019e-19 0)
(0.722703 8.9451e-19 0)
(0.723776 8.69978e-19 0)
(0.724843 8.42085e-19 0)
(0.725905 8.11455e-19 0)
(0.726961 7.79532e-19 0)
(0.728012 7.48042e-19 0)
(0.729058 7.22637e-19 0)
(0.730099 6.58917e-19 0)
(0.731134 5.5507e-19 0)
(0.732165 4.39389e-19 0)
(0.73319 3.52628e-19 0)
(0.73421 3.04252e-19 0)
(0.735225 2.49142e-19 0)
(0.736236 1.92967e-19 0)
(0.737241 1.37458e-19 0)
(0.738242 8.36891e-20 0)
(0.739237 3.2601e-20 0)
(0.740229 -1.55493e-20 0)
(0.741215 -6.03813e-20 0)
(0.742197 -1.02015e-19 0)
(0.743174 -1.40311e-19 0)
(0.744146 -1.75533e-19 0)
(0.745114 -2.07987e-19 0)
(0.746078 -2.3763e-19 0)
(0.747037 -2.64764e-19 0)
(0.747991 -2.89662e-19 0)
(0.748941 -3.12596e-19 0)
(0.749887 -3.33844e-19 0)
(0.750829 -3.53323e-19 0)
(0.751766 -3.71307e-19 0)
(0.752699 -3.88068e-19 0)
(0.753628 -4.03898e-19 0)
(0.754553 -4.19125e-19 0)
(0.755473 -4.3413e-19 0)
(0.75639 -4.49369e-19 0)
(0.757302 -4.65021e-19 0)
(0.75821 -4.82083e-19 0)
(0.759115 -5.01398e-19 0)
(0.760015 -5.22595e-19 0)
(0.760912 -5.6761e-19 0)
(0.761804 -7.36466e-19 0)
(0.762693 -9.05655e-19 0)
(0.763578 -9.50625e-19 0)
(0.764459 -9.71351e-19 0)
(0.765336 -9.89711e-19 0)
(0.766209 -1.00526e-18 0)
(0.767079 -1.01912e-18 0)
(0.767945 -1.03184e-18 0)
(0.768807 -1.04379e-18 0)
(0.769666 -1.0553e-18 0)
(0.770521 -1.06656e-18 0)
(0.771373 -1.07774e-18 0)
(0.772221 -1.08875e-18 0)
(0.773065 -1.09963e-18 0)
(0.773906 -1.11055e-18 0)
(0.774743 -1.12148e-18 0)
(0.775577 -1.13237e-18 0)
(0.776408 -1.14315e-18 0)
(0.777235 -1.15374e-18 0)
(0.778059 -1.16407e-18 0)
(0.778879 -1.17406e-18 0)
(0.779696 -1.18379e-18 0)
(0.780509 -1.1932e-18 0)
(0.78132 -1.2022e-18 0)
(0.782127 -1.21074e-18 0)
(0.78293 -1.21878e-18 0)
(0.783731 -1.22627e-18 0)
(0.784528 -1.23318e-18 0)
(0.785322 -1.2395e-18 0)
(0.786113 -1.24522e-18 0)
(0.786901 -1.25032e-18 0)
(0.787686 -1.2548e-18 0)
(0.788467 -1.25868e-18 0)
(0.789245 -1.26197e-18 0)
(0.790021 -1.26467e-18 0)
(0.790793 -1.2668e-18 0)
(0.791562 -1.26839e-18 0)
(0.792328 -1.26946e-18 0)
(0.793091 -1.27003e-18 0)
(0.793851 -1.27012e-18 0)
(0.794608 -1.26975e-18 0)
(0.795362 -1.26897e-18 0)
(0.796113 -1.26778e-18 0)
(0.796862 -1.26622e-18 0)
(0.797607 -1.26431e-18 0)
(0.798349 -1.26209e-18 0)
(0.799088 -1.25958e-18 0)
(0.799825 -1.2566e-18 0)
(0.800559 -1.25319e-18 0)
(0.801289 -1.24952e-18 0)
(0.802017 -1.24562e-18 0)
(0.802742 -1.2415e-18 0)
(0.803464 -1.23702e-18 0)
(0.804184 -1.23219e-18 0)
(0.8049 -1.22704e-18 0)
(0.805614 -1.22158e-18 0)
(0.806325 -1.21584e-18 0)
(0.807033 -1.20983e-18 0)
(0.807739 -1.20358e-18 0)
(0.808442 -1.1971e-18 0)
(0.809141 -1.1904e-18 0)
(0.809839 -1.18351e-18 0)
(0.810533 -1.17643e-18 0)
(0.811225 -1.16917e-18 0)
(0.811914 -1.16176e-18 0)
(0.8126 -1.1542e-18 0)
(0.813283 -1.1465e-18 0)
(0.813964 -1.13867e-18 0)
(0.814642 -1.13073e-18 0)
(0.815318 -1.12268e-18 0)
(0.815991 -1.11453e-18 0)
(0.816661 -1.10629e-18 0)
(0.817328 -1.09797e-18 0)
(0.817993 -1.08957e-18 0)
(0.818655 -1.0811e-18 0)
(0.819314 -1.07257e-18 0)
(0.819971 -1.06398e-18 0)
(0.820625 -1.05535e-18 0)
(0.821276 -1.04666e-18 0)
(0.821925 -1.03794e-18 0)
(0.822571 -1.02919e-18 0)
(0.823214 -1.0204e-18 0)
(0.823855 -1.01159e-18 0)
(0.824493 -1.00276e-18 0)
(0.825129 -9.9392e-19 0)
(0.825762 -9.85065e-19 0)
(0.826392 -9.76202e-19 0)
(0.827019 -9.67337e-19 0)
(0.827644 -9.58472e-19 0)
(0.828266 -9.49611e-19 0)
(0.828886 -9.40759e-19 0)
(0.829503 -9.31917e-19 0)
(0.830117 -9.23089e-19 0)
(0.830728 -9.14279e-19 0)
(0.831337 -9.0549e-19 0)
(0.831943 -8.96724e-19 0)
(0.832547 -8.87984e-19 0)
(0.833148 -8.79273e-19 0)
(0.833746 -8.70594e-19 0)
(0.834341 -8.61949e-19 0)
(0.834934 -8.5334e-19 0)
(0.835524 -8.4477e-19 0)
(0.836112 -8.3624e-19 0)
(0.836696 -8.27754e-19 0)
(0.837278 -8.19312e-19 0)
(0.837857 -8.10918e-19 0)
(0.838434 -8.02572e-19 0)
(0.839008 -7.94276e-19 0)
(0.839579 -7.86032e-19 0)
(0.840147 -7.77842e-19 0)
(0.840713 -7.69707e-19 0)
(0.841275 -7.61627e-19 0)
(0.841835 -7.53606e-19 0)
(0.842393 -7.45643e-19 0)
(0.842947 -7.3774e-19 0)
(0.843499 -7.29898e-19 0)
(0.844048 -7.22118e-19 0)
(0.844594 -7.144e-19 0)
(0.845137 -7.06745e-19 0)
(0.845677 -6.99155e-19 0)
(0.846215 -6.9163e-19 0)
(0.846749 -6.8417e-19 0)
(0.847281 -6.76776e-19 0)
(0.84781 -6.69448e-19 0)
(0.848336 -6.62187e-19 0)
(0.84886 -6.54993e-19 0)
(0.84938 -6.47866e-19 0)
(0.849897 -6.40807e-19 0)
(0.850412 -6.33815e-19 0)
(0.850923 -6.26891e-19 0)
(0.851432 -6.20035e-19 0)
(0.851938 -6.13246e-19 0)
(0.85244 -6.06525e-19 0)
(0.85294 -5.99872e-19 0)
(0.853437 -5.93287e-19 0)
(0.853931 -5.86769e-19 0)
(0.854421 -5.80318e-19 0)
(0.854909 -5.73933e-19 0)
(0.855394 -5.67616e-19 0)
(0.855875 -5.61364e-19 0)
(0.856354 -5.55179e-19 0)
(0.85683 -5.49059e-19 0)
(0.857302 -5.43005e-19 0)
(0.857772 -5.37015e-19 0)
(0.858238 -5.31089e-19 0)
(0.858701 -5.25227e-19 0)
(0.859161 -5.19429e-19 0)
(0.859618 -5.13694e-19 0)
(0.860072 -5.08021e-19 0)
(0.860523 -5.02409e-19 0)
(0.860971 -4.96859e-19 0)
(0.861415 -4.9137e-19 0)
(0.861857 -4.85941e-19 0)
(0.862295 -4.80572e-19 0)
(0.86273 -4.75261e-19 0)
(0.863161 -4.70009e-19 0)
(0.86359 -4.64815e-19 0)
(0.864015 -4.59677e-19 0)
(0.864437 -4.54597e-19 0)
(0.864856 -4.49572e-19 0)
(0.865272 -4.44603e-19 0)
(0.865684 -4.39688e-19 0)
(0.866094 -4.34828e-19 0)
(0.866499 -4.30021e-19 0)
(0.866902 -4.25266e-19 0)
(0.867301 -4.20564e-19 0)
(0.867698 -4.15914e-19 0)
(0.86809 -4.11315e-19 0)
(0.86848 -4.06766e-19 0)
(0.868866 -4.02267e-19 0)
(0.869249 -3.97817e-19 0)
(0.869629 -3.93416e-19 0)
(0.870005 -3.89062e-19 0)
(0.870378 -3.84756e-19 0)
(0.870748 -3.80497e-19 0)
(0.871114 -3.76284e-19 0)
(0.871477 -3.72117e-19 0)
(0.871837 -3.67995e-19 0)
(0.872193 -3.63918e-19 0)
(0.872546 -3.59884e-19 0)
(0.872896 -3.55894e-19 0)
(0.873243 -3.51947e-19 0)
(0.873586 -3.48042e-19 0)
(0.873925 -3.44179e-19 0)
(0.874262 -3.40358e-19 0)
(0.874595 -3.36577e-19 0)
(0.874925 -3.32836e-19 0)
(0.875251 -3.29136e-19 0)
(0.875574 -3.25475e-19 0)
(0.875894 -3.21852e-19 0)
(0.87621 -3.18268e-19 0)
(0.876523 -3.14722e-19 0)
(0.876833 -3.11213e-19 0)
(0.87714 -3.07742e-19 0)
(0.877443 -3.04307e-19 0)
(0.877742 -3.00908e-19 0)
(0.878039 -2.97544e-19 0)
(0.878332 -2.94216e-19 0)
(0.878622 -2.90923e-19 0)
(0.878908 -2.87665e-19 0)
(0.879192 -2.8444e-19 0)
(0.879472 -2.81249e-19 0)
(0.879748 -2.78092e-19 0)
(0.880022 -2.74967e-19 0)
(0.880292 -2.71875e-19 0)
(0.880558 -2.68814e-19 0)
(0.880822 -2.65786e-19 0)
(0.881082 -2.62789e-19 0)
(0.881339 -2.59824e-19 0)
(0.881593 -2.56889e-19 0)
(0.881843 -2.53984e-19 0)
(0.882091 -2.51109e-19 0)
(0.882335 -2.48264e-19 0)
(0.882576 -2.45449e-19 0)
(0.882813 -2.42663e-19 0)
(0.883048 -2.39905e-19 0)
(0.883279 -2.37176e-19 0)
(0.883507 -2.34475e-19 0)
(0.883732 -2.31802e-19 0)
(0.883953 -2.29157e-19 0)
(0.884172 -2.26539e-19 0)
(0.884387 -2.23948e-19 0)
(0.884599 -2.21384e-19 0)
(0.884809 -2.18846e-19 0)
(0.885014 -2.16334e-19 0)
(0.885217 -2.13849e-19 0)
(0.885417 -2.11389e-19 0)
(0.885614 -2.08954e-19 0)
(0.885807 -2.06545e-19 0)
(0.885998 -2.0416e-19 0)
(0.886185 -2.01801e-19 0)
(0.886369 -1.99465e-19 0)
(0.886551 -1.97154e-19 0)
(0.886729 -1.94867e-19 0)
(0.886904 -1.92603e-19 0)
(0.887076 -1.90363e-19 0)
(0.887245 -1.88147e-19 0)
(0.887411 -1.85953e-19 0)
(0.887575 -1.83782e-19 0)
(0.887735 -1.81634e-19 0)
(0.887892 -1.79508e-19 0)
(0.888046 -1.77404e-19 0)
(0.888197 -1.75322e-19 0)
(0.888346 -1.73262e-19 0)
(0.888491 -1.71224e-19 0)
(0.888634 -1.69207e-19 0)
(0.888773 -1.67211e-19 0)
(0.88891 -1.65236e-19 0)
(0.889044 -1.63282e-19 0)
(0.889174 -1.61348e-19 0)
(0.889302 -1.59435e-19 0)
(0.889427 -1.57542e-19 0)
(0.88955 -1.55669e-19 0)
(0.889669 -1.53816e-19 0)
(0.889786 -1.51983e-19 0)
(0.889899 -1.50169e-19 0)
(0.89001 -1.48374e-19 0)
(0.890118 -1.46598e-19 0)
(0.890223 -1.44842e-19 0)
(0.890326 -1.43104e-19 0)
(0.890425 -1.41385e-19 0)
(0.890522 -1.39684e-19 0)
(0.890616 -1.38002e-19 0)
(0.890708 -1.36337e-19 0)
(0.890796 -1.34691e-19 0)
(0.890882 -1.33062e-19 0)
(0.890965 -1.31451e-19 0)
(0.891045 -1.29858e-19 0)
(0.891123 -1.28281e-19 0)
(0.891198 -1.26722e-19 0)
(0.89127 -1.2518e-19 0)
(0.891339 -1.23655e-19 0)
(0.891406 -1.22146e-19 0)
(0.89147 -1.20654e-19 0)
(0.891531 -1.19179e-19 0)
(0.891589 -1.1772e-19 0)
(0.891645 -1.16277e-19 0)
(0.891698 -1.1485e-19 0)
(0.891749 -1.13439e-19 0)
(0.891796 -1.12045e-19 0)
(0.891841 -1.10666e-19 0)
(0.891884 -1.09303e-19 0)
(0.891924 -1.07956e-19 0)
(0.891961 -1.06617e-19 0)
(0.891995 -1.05285e-19 0)
(0.892027 -1.0397e-19 0)
(0.892056 -1.0267e-19 0)
(0.892082 -1.01386e-19 0)
(0.892106 -1.00118e-19 0)
(0.892127 -9.88583e-20 0)
(0.892146 -9.76084e-20 0)
(0.892162 -9.63677e-20 0)
(0.892175 -9.5136e-20 0)
(0.892186 -9.3913e-20 0)
(0.892193 -9.27012e-20 0)
(0.892199 -9.15004e-20 0)
(0.892201 -9.03091e-20 0)
(0.892201 -8.91278e-20 0)
(0.892199 -8.79564e-20 0)
(0.892193 -8.67941e-20 0)
(0.892186 -8.56419e-20 0)
(0.892175 -8.44997e-20 0)
(0.892162 -8.33646e-20 0)
(0.892146 -8.22416e-20 0)
(0.892127 -8.11257e-20 0)
(0.892106 -8.00173e-20 0)
(0.892082 -7.89161e-20 0)
(0.892056 -7.7827e-20 0)
(0.892027 -7.67499e-20 0)
(0.891995 -7.56846e-20 0)
(0.891961 -7.46311e-20 0)
(0.891924 -7.35892e-20 0)
(0.891884 -7.25588e-20 0)
(0.891841 -7.15399e-20 0)
(0.891796 -7.05322e-20 0)
(0.891749 -6.95358e-20 0)
(0.891698 -6.85505e-20 0)
(0.891645 -6.75761e-20 0)
(0.891589 -6.66127e-20 0)
(0.891531 -6.566e-20 0)
(0.89147 -6.4718e-20 0)
(0.891406 -6.37865e-20 0)
(0.891339 -6.28655e-20 0)
(0.89127 -6.19548e-20 0)
(0.891198 -6.10544e-20 0)
(0.891123 -6.01642e-20 0)
(0.891045 -5.92839e-20 0)
(0.890965 -5.84137e-20 0)
(0.890882 -5.75533e-20 0)
(0.890796 -5.67026e-20 0)
(0.890708 -5.58616e-20 0)
(0.890616 -5.50302e-20 0)
(0.890522 -5.42082e-20 0)
(0.890425 -5.33956e-20 0)
(0.890326 -5.25923e-20 0)
(0.890223 -5.17982e-20 0)
(0.890118 -5.10132e-20 0)
(0.89001 -5.02372e-20 0)
(0.889899 -4.94702e-20 0)
(0.889786 -4.8712e-20 0)
(0.889669 -4.79626e-20 0)
(0.88955 -4.72218e-20 0)
(0.889427 -4.64897e-20 0)
(0.889302 -4.5766e-20 0)
(0.889174 -4.50508e-20 0)
(0.889044 -4.4344e-20 0)
(0.88891 -4.36454e-20 0)
(0.888773 -4.2955e-20 0)
(0.888634 -4.22728e-20 0)
(0.888491 -4.15985e-20 0)
(0.888346 -4.09323e-20 0)
(0.888197 -4.02739e-20 0)
(0.888046 -3.96234e-20 0)
(0.887892 -3.89805e-20 0)
(0.887735 -3.83454e-20 0)
(0.887575 -3.77178e-20 0)
(0.887411 -3.70978e-20 0)
(0.887245 -3.64852e-20 0)
(0.887076 -3.58801e-20 0)
(0.886904 -3.52822e-20 0)
(0.886729 -3.46916e-20 0)
(0.886551 -3.41081e-20 0)
(0.886369 -3.35318e-20 0)
(0.886185 -3.29625e-20 0)
(0.885998 -3.24002e-20 0)
(0.885807 -3.18448e-20 0)
(0.885614 -3.12962e-20 0)
(0.885417 -3.07545e-20 0)
(0.885217 -3.02195e-20 0)
(0.885014 -2.96911e-20 0)
(0.884809 -2.91693e-20 0)
(0.884599 -2.86541e-20 0)
(0.884387 -2.81453e-20 0)
(0.884172 -2.7643e-20 0)
(0.883953 -2.7147e-20 0)
(0.883732 -2.66573e-20 0)
(0.883507 -2.61738e-20 0)
(0.883279 -2.56966e-20 0)
(0.883048 -2.52254e-20 0)
(0.882813 -2.47604e-20 0)
(0.882576 -2.43013e-20 0)
(0.882335 -2.38482e-20 0)
(0.882091 -2.3401e-20 0)
(0.881843 -2.29596e-20 0)
(0.881593 -2.2524e-20 0)
(0.881339 -2.20942e-20 0)
(0.881082 -2.167e-20 0)
(0.880822 -2.12515e-20 0)
(0.880558 -2.08385e-20 0)
(0.880292 -2.04311e-20 0)
(0.880022 -2.00291e-20 0)
(0.879748 -1.96326e-20 0)
(0.879472 -1.92414e-20 0)
(0.879192 -1.88556e-20 0)
(0.878908 -1.8475e-20 0)
(0.878622 -1.80996e-20 0)
(0.878332 -1.77294e-20 0)
(0.878039 -1.73644e-20 0)
(0.877742 -1.70044e-20 0)
(0.877443 -1.66494e-20 0)
(0.87714 -1.62994e-20 0)
(0.876833 -1.59543e-20 0)
(0.876523 -1.56141e-20 0)
(0.87621 -1.52787e-20 0)
(0.875894 -1.49481e-20 0)
(0.875574 -1.46223e-20 0)
(0.875251 -1.43011e-20 0)
(0.874925 -1.39846e-20 0)
(0.874595 -1.36727e-20 0)
(0.874262 -1.33653e-20 0)
(0.873926 -1.30625e-20 0)
(0.873586 -1.27641e-20 0)
(0.873243 -1.24701e-20 0)
(0.872896 -1.21805e-20 0)
(0.872547 -1.18953e-20 0)
(0.872193 -1.16143e-20 0)
(0.871837 -1.13376e-20 0)
(0.871477 -1.10651e-20 0)
(0.871114 -1.07967e-20 0)
(0.870748 -1.05325e-20 0)
(0.870378 -1.02723e-20 0)
(0.870005 -1.00162e-20 0)
(0.869629 -9.76402e-21 0)
(0.869249 -9.51582e-21 0)
(0.868866 -9.27153e-21 0)
(0.86848 -9.03109e-21 0)
(0.86809 -8.79448e-21 0)
(0.867698 -8.56166e-21 0)
(0.867301 -8.33257e-21 0)
(0.866902 -8.10719e-21 0)
(0.866499 -7.88546e-21 0)
(0.866094 -7.66736e-21 0)
(0.865684 -7.45283e-21 0)
(0.865272 -7.24185e-21 0)
(0.864856 -7.03437e-21 0)
(0.864437 -6.83035e-21 0)
(0.864015 -6.62975e-21 0)
(0.86359 -6.43254e-21 0)
(0.863161 -6.23867e-21 0)
(0.86273 -6.04811e-21 0)
(0.862295 -5.86082e-21 0)
(0.861857 -5.67676e-21 0)
(0.861415 -5.49589e-21 0)
(0.860971 -5.31817e-21 0)
(0.860523 -5.14358e-21 0)
(0.860072 -4.97206e-21 0)
(0.859619 -4.80359e-21 0)
(0.859161 -4.63813e-21 0)
(0.858701 -4.47563e-21 0)
(0.858238 -4.31607e-21 0)
(0.857772 -4.15941e-21 0)
(0.857302 -4.00561e-21 0)
(0.85683 -3.85463e-21 0)
(0.856354 -3.70645e-21 0)
(0.855875 -3.56102e-21 0)
(0.855394 -3.41831e-21 0)
(0.854909 -3.27828e-21 0)
(0.854421 -3.14091e-21 0)
(0.853931 -3.00615e-21 0)
(0.853437 -2.87397e-21 0)
(0.85294 -2.74435e-21 0)
(0.85244 -2.61723e-21 0)
(0.851938 -2.4926e-21 0)
(0.851432 -2.37041e-21 0)
(0.850923 -2.25064e-21 0)
(0.850412 -2.13325e-21 0)
(0.849897 -2.01821e-21 0)
(0.84938 -1.90549e-21 0)
(0.84886 -1.79505e-21 0)
(0.848336 -1.68686e-21 0)
(0.84781 -1.5809e-21 0)
(0.847281 -1.47713e-21 0)
(0.846749 -1.37551e-21 0)
(0.846215 -1.27602e-21 0)
(0.845677 -1.17863e-21 0)
(0.845137 -1.08331e-21 0)
(0.844594 -9.90028e-22 0)
(0.844048 -8.98751e-22 0)
(0.843499 -8.09451e-22 0)
(0.842947 -7.221e-22 0)
(0.842393 -6.36669e-22 0)
(0.841835 -5.53128e-22 0)
(0.841275 -4.7145e-22 0)
(0.840713 -3.91606e-22 0)
(0.840147 -3.13567e-22 0)
(0.839579 -2.37308e-22 0)
(0.839008 -1.62799e-22 0)
(0.838434 -9.00137e-23 0)
(0.837857 -1.89255e-23 0)
(0.837278 5.04925e-23 0)
(0.836696 1.18267e-22 0)
(0.836112 1.84423e-22 0)
(0.835524 2.48988e-22 0)
(0.834934 3.11986e-22 0)
(0.834341 3.73443e-22 0)
(0.833746 4.33384e-22 0)
(0.833148 4.91834e-22 0)
(0.832547 5.48817e-22 0)
(0.831943 6.04357e-22 0)
(0.831337 6.58479e-22 0)
(0.830728 7.11206e-22 0)
(0.830117 7.62561e-22 0)
(0.829503 8.12568e-22 0)
(0.828886 8.61249e-22 0)
(0.828266 9.08628e-22 0)
(0.827644 9.54725e-22 0)
(0.827019 9.99565e-22 0)
(0.826392 1.04317e-21 0)
(0.825762 1.08555e-21 0)
(0.825129 1.12675e-21 0)
(0.824493 1.16677e-21 0)
(0.823855 1.20564e-21 0)
(0.823214 1.24337e-21 0)
(0.822571 1.28e-21 0)
(0.821925 1.31553e-21 0)
(0.821276 1.34999e-21 0)
(0.820625 1.3834e-21 0)
(0.819971 1.41578e-21 0)
(0.819314 1.44714e-21 0)
(0.818655 1.47751e-21 0)
(0.817993 1.5069e-21 0)
(0.817328 1.53533e-21 0)
(0.816661 1.56282e-21 0)
(0.815991 1.58939e-21 0)
(0.815318 1.61506e-21 0)
(0.814642 1.63983e-21 0)
(0.813964 1.66373e-21 0)
(0.813283 1.68678e-21 0)
(0.8126 1.70899e-21 0)
(0.811914 1.73038e-21 0)
(0.811225 1.75097e-21 0)
(0.810533 1.77076e-21 0)
(0.809839 1.78978e-21 0)
(0.809141 1.80804e-21 0)
(0.808442 1.82556e-21 0)
(0.807739 1.84235e-21 0)
(0.807033 1.85843e-21 0)
(0.806325 1.8738e-21 0)
(0.805614 1.88849e-21 0)
(0.8049 1.90251e-21 0)
(0.804184 1.91588e-21 0)
(0.803464 1.9286e-21 0)
(0.802742 1.94069e-21 0)
(0.802017 1.95216e-21 0)
(0.801289 1.96303e-21 0)
(0.800559 1.97331e-21 0)
(0.799825 1.98301e-21 0)
(0.799088 1.99214e-21 0)
(0.798349 2.00072e-21 0)
(0.797607 2.00876e-21 0)
(0.796862 2.01627e-21 0)
(0.796113 2.02326e-21 0)
(0.795362 2.02975e-21 0)
(0.794608 2.03574e-21 0)
(0.793851 2.04124e-21 0)
(0.793091 2.04628e-21 0)
(0.792328 2.05085e-21 0)
(0.791562 2.05497e-21 0)
(0.790793 2.05864e-21 0)
(0.790021 2.06189e-21 0)
(0.789245 2.06472e-21 0)
(0.788467 2.06713e-21 0)
(0.787686 2.06915e-21 0)
(0.786901 2.07077e-21 0)
(0.786113 2.07201e-21 0)
(0.785322 2.07288e-21 0)
(0.784528 2.07339e-21 0)
(0.783731 2.07354e-21 0)
(0.78293 2.07334e-21 0)
(0.782127 2.07281e-21 0)
(0.78132 2.07194e-21 0)
(0.780509 2.07076e-21 0)
(0.779696 2.06927e-21 0)
(0.778879 2.06747e-21 0)
(0.778059 2.06537e-21 0)
(0.777235 2.06299e-21 0)
(0.776408 2.06033e-21 0)
(0.775577 2.05739e-21 0)
(0.774743 2.05419e-21 0)
(0.773906 2.05072e-21 0)
(0.773065 2.04701e-21 0)
(0.772221 2.04306e-21 0)
(0.771373 2.03886e-21 0)
(0.770521 2.03444e-21 0)
(0.769666 2.02979e-21 0)
(0.768807 2.02492e-21 0)
(0.767945 2.01984e-21 0)
(0.767079 2.01456e-21 0)
(0.766209 2.00908e-21 0)
(0.765336 2.00341e-21 0)
(0.764459 1.99755e-21 0)
(0.763578 1.99151e-21 0)
(0.762693 1.98529e-21 0)
(0.761804 1.97891e-21 0)
(0.760912 1.97236e-21 0)
(0.760015 1.96565e-21 0)
(0.759115 1.95879e-21 0)
(0.75821 1.95178e-21 0)
(0.757302 1.94463e-21 0)
(0.75639 1.93734e-21 0)
(0.755473 1.92992e-21 0)
(0.754553 1.92236e-21 0)
(0.753628 1.91469e-21 0)
(0.752699 1.9069e-21 0)
(0.751766 1.89899e-21 0)
(0.750829 1.89097e-21 0)
(0.749887 1.88285e-21 0)
(0.748941 1.87462e-21 0)
(0.747991 1.8663e-21 0)
(0.747037 1.85788e-21 0)
(0.746078 1.84938e-21 0)
(0.745114 1.84079e-21 0)
(0.744146 1.83212e-21 0)
(0.743174 1.82337e-21 0)
(0.742197 1.81455e-21 0)
(0.741215 1.80566e-21 0)
(0.740229 1.7967e-21 0)
(0.739237 1.78768e-21 0)
(0.738242 1.77859e-21 0)
(0.737241 1.76946e-21 0)
(0.736236 1.76026e-21 0)
(0.735225 1.75102e-21 0)
(0.73421 1.74173e-21 0)
(0.73319 1.7324e-21 0)
(0.732165 1.72303e-21 0)
(0.731134 1.71362e-21 0)
(0.730099 1.70417e-21 0)
(0.729058 1.69469e-21 0)
(0.728012 1.68518e-21 0)
(0.726961 1.67564e-21 0)
(0.725905 1.66608e-21 0)
(0.724843 1.6565e-21 0)
(0.723776 1.6469e-21 0)
(0.722703 1.63728e-21 0)
(0.721625 1.62765e-21 0)
(0.720541 1.618e-21 0)
(0.719452 1.60834e-21 0)
(0.718357 1.59868e-21 0)
(0.717256 1.58901e-21 0)
(0.716149 1.57933e-21 0)
(0.715036 1.56966e-21 0)
(0.713918 1.55998e-21 0)
(0.712793 1.55031e-21 0)
(0.711663 1.54064e-21 0)
(0.710526 1.53097e-21 0)
(0.709383 1.52132e-21 0)
(0.708233 1.51167e-21 0)
(0.707078 1.50203e-21 0)
(0.705915 1.49241e-21 0)
(0.704747 1.4828e-21 0)
(0.703572 1.47321e-21 0)
(0.70239 1.46363e-21 0)
(0.701201 1.45408e-21 0)
(0.700006 1.44454e-21 0)
(0.698804 1.43502e-21 0)
(0.697594 1.42553e-21 0)
(0.696378 1.41606e-21 0)
(0.695155 1.40662e-21 0)
(0.693924 1.3972e-21 0)
(0.692686 1.38781e-21 0)
(0.691441 1.37846e-21 0)
(0.690188 1.36913e-21 0)
(0.688927 1.35983e-21 0)
(0.687659 1.35056e-21 0)
(0.686383 1.34133e-21 0)
(0.6851 1.33213e-21 0)
(0.683808 1.32297e-21 0)
(0.682508 1.31384e-21 0)
(0.6812 1.30475e-21 0)
(0.679884 1.29569e-21 0)
(0.678559 1.28668e-21 0)
(0.677225 1.2777e-21 0)
(0.675883 1.26876e-21 0)
(0.674533 1.25987e-21 0)
(0.673173 1.25101e-21 0)
(0.671804 1.2422e-21 0)
(0.670426 1.23343e-21 0)
(0.669039 1.2247e-21 0)
(0.667643 1.21601e-21 0)
(0.666237 1.20737e-21 0)
(0.664821 1.19878e-21 0)
(0.663395 1.19022e-21 0)
(0.661959 1.18172e-21 0)
(0.660513 1.17326e-21 0)
(0.659057 1.16484e-21 0)
(0.657591 1.15647e-21 0)
(0.656113 1.14815e-21 0)
(0.654625 1.13987e-21 0)
(0.653126 1.13165e-21 0)
(0.651616 1.12347e-21 0)
(0.650094 1.11533e-21 0)
(0.648561 1.10725e-21 0)
(0.647016 1.09921e-21 0)
(0.645459 1.09122e-21 0)
(0.643889 1.08327e-21 0)
(0.642308 1.07538e-21 0)
(0.640714 1.06753e-21 0)
(0.639107 1.05974e-21 0)
(0.637487 1.05199e-21 0)
(0.635854 1.04428e-21 0)
(0.634207 1.03663e-21 0)
(0.632546 1.02902e-21 0)
(0.630871 1.02146e-21 0)
(0.629182 1.01395e-21 0)
(0.627478 1.00649e-21 0)
(0.62576 9.99069e-22 0)
(0.624026 9.91699e-22 0)
(0.622277 9.84375e-22 0)
(0.620511 9.77097e-22 0)
(0.61873 9.69865e-22 0)
(0.616932 9.62679e-22 0)
(0.615117 9.55538e-22 0)
(0.613285 9.48442e-22 0)
(0.611435 9.41391e-22 0)
(0.609568 9.34383e-22 0)
(0.607681 9.27418e-22 0)
(0.605776 9.20497e-22 0)
(0.603852 9.13617e-22 0)
(0.601908 9.0678e-22 0)
(0.599944 8.99983e-22 0)
(0.597959 8.93227e-22 0)
(0.595953 8.86511e-22 0)
(0.593925 8.79833e-22 0)
(0.591875 8.73194e-22 0)
(0.589801 8.66592e-22 0)
(0.587705 8.60027e-22 0)
(0.585584 8.53497e-22 0)
(0.583439 8.47002e-22 0)
(0.581268 8.4054e-22 0)
(0.579071 8.34111e-22 0)
(0.576847 8.27714e-22 0)
(0.574595 8.21348e-22 0)
(0.572315 8.1501e-22 0)
(0.570006 8.08701e-22 0)
(0.567667 8.02418e-22 0)
(0.565296 7.96161e-22 0)
(0.562893 7.89928e-22 0)
(0.560458 7.83717e-22 0)
(0.557988 7.77527e-22 0)
(0.555483 7.71356e-22 0)
(0.552941 7.65203e-22 0)
(0.550361 7.59066e-22 0)
(0.547743 7.52942e-22 0)
(0.545084 7.4683e-22 0)
(0.542383 7.40728e-22 0)
(0.539639 7.34633e-22 0)
(0.53685 7.28544e-22 0)
(0.534014 7.22457e-22 0)
(0.531129 7.16371e-22 0)
(0.528194 7.10281e-22 0)
(0.525206 7.04186e-22 0)
(0.522163 6.98083e-22 0)
(0.519063 6.91967e-22 0)
(0.515903 6.85836e-22 0)
(0.512681 6.79687e-22 0)
(0.509393 6.73514e-22 0)
(0.506037 6.67313e-22 0)
(0.50261 6.61081e-22 0)
(0.499107 6.54813e-22 0)
(0.495526 6.48503e-22 0)
(0.491861 6.42145e-22 0)
(0.488108 6.35735e-22 0)
(0.484263 6.29264e-22 0)
(0.48032 6.22727e-22 0)
(0.476274 6.16116e-22 0)
(0.472118 6.09422e-22 0)
(0.467845 6.02637e-22 0)
(0.463448 5.9575e-22 0)
(0.458919 5.88751e-22 0)
(0.454248 5.81629e-22 0)
(0.449425 5.74369e-22 0)
(0.444438 5.66957e-22 0)
(0.439276 5.59377e-22 0)
(0.433924 5.5161e-22 0)
(0.428365 5.43637e-22 0)
(0.422582 5.35433e-22 0)
(0.416553 5.26973e-22 0)
(0.410255 5.18226e-22 0)
(0.403661 5.09157e-22 0)
(0.396737 4.99726e-22 0)
(0.389445 4.89884e-22 0)
(0.381743 4.79576e-22 0)
(0.373574 4.68735e-22 0)
(0.364874 4.57278e-22 0)
(0.355564 4.45105e-22 0)
(0.345542 4.32092e-22 0)
(0.334682 4.1808e-22 0)
(0.322817 4.02862e-22 0)
(0.309729 3.86165e-22 0)
(0.295113 3.67613e-22 0)
(0.278538 3.46669e-22 0)
(0.259359 3.22533e-22 0)
(0.236557 2.93941e-22 0)
(0.208399 2.58747e-22 0)
(0.171729 2.13045e-22 0)
(0.120928 1.49886e-22 0)
(0.0512216 6.34129e-23 0)
)
;

boundaryField
{
    top_wall
    {
        type            noSlip;
    }
    inlet
    {
        type            cyclic;
    }
    bot_wall
    {
        type            noSlip;
    }
    outlet
    {
        type            cyclic;
    }
    frontAndBack
    {
        type            empty;
    }
}


// ************************************************************************* //
