/*--------------------------------*- C++ -*----------------------------------*\
| =========                 |                                                 |
| \\      /  F ield         | OpenFOAM: The Open Source CFD Toolbox           |
|  \\    /   O peration     | Version:  2312                                  |
|   \\  /    A nd           | Website:  www.openfoam.com                      |
|    \\/     M anipulation  |                                                 |
\*---------------------------------------------------------------------------*/
FoamFile
{
    version     2.0;
    format      ascii;
    arch        "LSB;label=32;scalar=64";
    class       volVectorField;
    location    "22.525";
    object      U;
}
// * * * * * * * * * * * * * * * * * * * * * * * * * * * * * * * * * * * * * //

dimensions      [0 1 -1 0 0 0 0];

internalField   nonuniform List<vector> 
1000
(
(0.169838 -1.40735e-18 0)
(0.508844 -2.46322e-18 0)
(0.846878 -2.60732e-18 0)
(1.18201 -2.44182e-18 0)
(1.50821 -2.40131e-18 0)
(1.81503 -2.40436e-18 0)
(2.09245 -2.40892e-18 0)
(2.33624 -2.40916e-18 0)
(2.54797 -2.40406e-18 0)
(2.73222 -2.40073e-18 0)
(2.89414 -2.39769e-18 0)
(3.03779 -2.39582e-18 0)
(3.16607 -2.39327e-18 0)
(3.28135 -2.39035e-18 0)
(3.38559 -2.38719e-18 0)
(3.48042 -2.38384e-18 0)
(3.56718 -2.38025e-18 0)
(3.64698 -2.37632e-18 0)
(3.72072 -2.37192e-18 0)
(3.78917 -2.37044e-18 0)
(3.85297 -2.37977e-18 0)
(3.91265 -2.39055e-18 0)
(3.96868 -2.39712e-18 0)
(4.02143 -2.39752e-18 0)
(4.07124 -2.40055e-18 0)
(4.11842 -2.40512e-18 0)
(4.16324 -2.40197e-18 0)
(4.20594 -2.40263e-18 0)
(4.24672 -2.40653e-18 0)
(4.28575 -2.41023e-18 0)
(4.32315 -2.40982e-18 0)
(4.35907 -2.40989e-18 0)
(4.3936 -2.4327e-18 0)
(4.42685 -2.45676e-18 0)
(4.4589 -2.46092e-18 0)
(4.48984 -2.45876e-18 0)
(4.51974 -2.45756e-18 0)
(4.54867 -2.46576e-18 0)
(4.57668 -2.47265e-18 0)
(4.60384 -2.46851e-18 0)
(4.63018 -2.46228e-18 0)
(4.65576 -2.45719e-18 0)
(4.68062 -2.45271e-18 0)
(4.7048 -2.44869e-18 0)
(4.72834 -2.44487e-18 0)
(4.75126 -2.44411e-18 0)
(4.77359 -2.44659e-18 0)
(4.79538 -2.44474e-18 0)
(4.81664 -2.43743e-18 0)
(4.8374 -2.42905e-18 0)
(4.85767 -2.42366e-18 0)
(4.87749 -2.42413e-18 0)
(4.89688 -2.4262e-18 0)
(4.91584 -2.42096e-18 0)
(4.93441 -2.40987e-18 0)
(4.95259 -2.40504e-18 0)
(4.9704 -2.40622e-18 0)
(4.98785 -2.40226e-18 0)
(5.00497 -2.39846e-18 0)
(5.02176 -2.39799e-18 0)
(5.03824 -2.3915e-18 0)
(5.05441 -2.37941e-18 0)
(5.07029 -2.36744e-18 0)
(5.08589 -2.35997e-18 0)
(5.10122 -2.35351e-18 0)
(5.11629 -2.34819e-18 0)
(5.13111 -2.34589e-18 0)
(5.14567 -2.34039e-18 0)
(5.16001 -2.33177e-18 0)
(5.17411 -2.32631e-18 0)
(5.188 -2.32068e-18 0)
(5.20167 -2.31154e-18 0)
(5.21513 -2.30694e-18 0)
(5.22839 -2.30474e-18 0)
(5.24145 -2.30367e-18 0)
(5.25433 -2.30249e-18 0)
(5.26702 -2.29771e-18 0)
(5.27953 -2.29728e-18 0)
(5.29187 -2.30109e-18 0)
(5.30405 -2.30133e-18 0)
(5.31606 -2.30008e-18 0)
(5.3279 -2.29872e-18 0)
(5.3396 -2.29672e-18 0)
(5.35114 -2.30029e-18 0)
(5.36254 -2.30797e-18 0)
(5.3738 -2.31209e-18 0)
(5.38491 -2.31445e-18 0)
(5.39589 -2.31984e-18 0)
(5.40674 -2.32347e-18 0)
(5.41746 -2.32238e-18 0)
(5.42805 -2.32105e-18 0)
(5.43853 -2.3253e-18 0)
(5.44888 -2.3338e-18 0)
(5.45911 -2.33759e-18 0)
(5.46924 -2.33541e-18 0)
(5.47925 -2.33314e-18 0)
(5.48915 -2.33657e-18 0)
(5.49895 -2.34398e-18 0)
(5.50864 -2.3509e-18 0)
(5.51823 -2.35775e-18 0)
(5.52772 -2.36298e-18 0)
(5.53712 -2.36653e-18 0)
(5.54642 -2.36987e-18 0)
(5.55563 -2.37281e-18 0)
(5.56475 -2.37511e-18 0)
(5.57377 -2.37809e-18 0)
(5.58272 -2.38222e-18 0)
(5.59157 -2.37616e-18 0)
(5.60035 -2.36639e-18 0)
(5.60904 -2.35548e-18 0)
(5.61765 -2.3462e-18 0)
(5.62619 -2.34597e-18 0)
(5.63464 -2.34494e-18 0)
(5.64302 -2.3421e-18 0)
(5.65133 -2.33737e-18 0)
(5.65957 -2.33067e-18 0)
(5.66773 -2.32191e-18 0)
(5.67583 -2.31254e-18 0)
(5.68386 -2.30317e-18 0)
(5.69182 -2.28892e-18 0)
(5.69971 -2.27653e-18 0)
(5.70754 -2.265e-18 0)
(5.71531 -2.25105e-18 0)
(5.72301 -2.24046e-18 0)
(5.73066 -2.23127e-18 0)
(5.73824 -2.22369e-18 0)
(5.74577 -2.21764e-18 0)
(5.75323 -2.21306e-18 0)
(5.76065 -2.20984e-18 0)
(5.768 -2.20787e-18 0)
(5.7753 -2.2062e-18 0)
(5.78255 -2.19508e-18 0)
(5.78974 -2.18057e-18 0)
(5.79688 -2.16685e-18 0)
(5.80397 -2.15979e-18 0)
(5.81101 -2.16415e-18 0)
(5.818 -2.15921e-18 0)
(5.82494 -2.15068e-18 0)
(5.83184 -2.14093e-18 0)
(5.83868 -2.13388e-18 0)
(5.84548 -2.13756e-18 0)
(5.85224 -2.13378e-18 0)
(5.85895 -2.12178e-18 0)
(5.86561 -2.10949e-18 0)
(5.87224 -2.10496e-18 0)
(5.87882 -2.10645e-18 0)
(5.88535 -2.10356e-18 0)
(5.89185 -2.09657e-18 0)
(5.8983 -2.08153e-18 0)
(5.90472 -2.07657e-18 0)
(5.91109 -2.07086e-18 0)
(5.91743 -2.05377e-18 0)
(5.92373 -2.0432e-18 0)
(5.92999 -2.03535e-18 0)
(5.93621 -2.02987e-18 0)
(5.9424 -2.0264e-18 0)
(5.94855 -2.0239e-18 0)
(5.95466 -2.01126e-18 0)
(5.96074 -1.99018e-18 0)
(5.96678 -1.96224e-18 0)
(5.97279 -1.9274e-18 0)
(5.97877 -1.89633e-18 0)
(5.98472 -1.85188e-18 0)
(5.99063 -1.81965e-18 0)
(5.99652 -1.81517e-18 0)
(6.00239 -1.78223e-18 0)
(6.00823 -1.73735e-18 0)
(6.01405 -1.70048e-18 0)
(6.01985 -1.66901e-18 0)
(6.02563 -1.65194e-18 0)
(6.03138 -1.61871e-18 0)
(6.03711 -1.57406e-18 0)
(6.04281 -1.52879e-18 0)
(6.0485 -1.4957e-18 0)
(6.05416 -1.48133e-18 0)
(6.05979 -1.45621e-18 0)
(6.06541 -1.42103e-18 0)
(6.071 -1.4015e-18 0)
(6.07657 -1.37816e-18 0)
(6.08211 -1.35974e-18 0)
(6.08764 -1.34767e-18 0)
(6.09313 -1.33694e-18 0)
(6.09861 -1.33638e-18 0)
(6.10407 -1.31377e-18 0)
(6.1095 -1.27096e-18 0)
(6.11491 -1.24442e-18 0)
(6.1203 -1.24366e-18 0)
(6.12566 -1.2183e-18 0)
(6.13101 -1.19006e-18 0)
(6.13633 -1.16529e-18 0)
(6.14163 -1.13859e-18 0)
(6.14691 -1.10734e-18 0)
(6.15217 -1.08382e-18 0)
(6.15741 -1.09276e-18 0)
(6.16263 -1.08346e-18 0)
(6.16782 -1.06021e-18 0)
(6.173 -1.05014e-18 0)
(6.17816 -1.04213e-18 0)
(6.1833 -1.02854e-18 0)
(6.18841 -1.01775e-18 0)
(6.19351 -9.97852e-19 0)
(6.19859 -9.7847e-19 0)
(6.20365 -9.70476e-19 0)
(6.20869 -9.62512e-19 0)
(6.21371 -9.5464e-19 0)
(6.21872 -9.39649e-19 0)
(6.2237 -9.12072e-19 0)
(6.22867 -8.8906e-19 0)
(6.23362 -8.82342e-19 0)
(6.23855 -8.72846e-19 0)
(6.24346 -8.86558e-19 0)
(6.24835 -8.72095e-19 0)
(6.25323 -8.30656e-19 0)
(6.25809 -8.31439e-19 0)
(6.26293 -8.38129e-19 0)
(6.26776 -8.39793e-19 0)
(6.27256 -8.66937e-19 0)
(6.27736 -8.72861e-19 0)
(6.28213 -8.16664e-19 0)
(6.28689 -7.96654e-19 0)
(6.29163 -7.90792e-19 0)
(6.29635 -7.54771e-19 0)
(6.30106 -7.12259e-19 0)
(6.30576 -6.70148e-19 0)
(6.31043 -6.26591e-19 0)
(6.31509 -5.81586e-19 0)
(6.31974 -5.49098e-19 0)
(6.32437 -5.1919e-19 0)
(6.32898 -4.98101e-19 0)
(6.33358 -4.7265e-19 0)
(6.33816 -4.83444e-19 0)
(6.34273 -5.06888e-19 0)
(6.34728 -4.9802e-19 0)
(6.35182 -4.93663e-19 0)
(6.35634 -4.76479e-19 0)
(6.36085 -4.50393e-19 0)
(6.36534 -4.31177e-19 0)
(6.36982 -4.13513e-19 0)
(6.37428 -3.99063e-19 0)
(6.37873 -3.73979e-19 0)
(6.38316 -3.45183e-19 0)
(6.38758 -3.16532e-19 0)
(6.39199 -2.91976e-19 0)
(6.39638 -2.80581e-19 0)
(6.40076 -2.67565e-19 0)
(6.40512 -2.52913e-19 0)
(6.40947 -2.29487e-19 0)
(6.4138 -2.34002e-19 0)
(6.41813 -2.75628e-19 0)
(6.42243 -2.86219e-19 0)
(6.42673 -2.73718e-19 0)
(6.43101 -2.64526e-19 0)
(6.43527 -2.63439e-19 0)
(6.43953 -2.20232e-19 0)
(6.44377 -1.27498e-19 0)
(6.44799 -8.3766e-20 0)
(6.45221 -8.25805e-20 0)
(6.45641 -6.99378e-20 0)
(6.46059 -3.40589e-20 0)
(6.46476 2.06918e-20 0)
(6.46892 4.59754e-20 0)
(6.47307 3.41088e-20 0)
(6.47721 5.36232e-20 0)
(6.48133 8.60145e-20 0)
(6.48543 9.48737e-20 0)
(6.48953 8.7749e-20 0)
(6.49361 7.39944e-20 0)
(6.49768 8.06351e-20 0)
(6.50174 1.25955e-19 0)
(6.50578 1.79875e-19 0)
(6.50981 2.0487e-19 0)
(6.51383 1.78474e-19 0)
(6.51784 1.58364e-19 0)
(6.52183 1.83133e-19 0)
(6.52581 2.114e-19 0)
(6.52978 2.41579e-19 0)
(6.53374 2.61896e-19 0)
(6.53768 2.77065e-19 0)
(6.54162 2.98526e-19 0)
(6.54553 2.90605e-19 0)
(6.54944 2.98683e-19 0)
(6.55334 3.43334e-19 0)
(6.55722 3.76981e-19 0)
(6.56109 4.09009e-19 0)
(6.56495 4.57207e-19 0)
(6.56879 5.07319e-19 0)
(6.57263 4.97983e-19 0)
(6.57645 4.85625e-19 0)
(6.58026 5.0083e-19 0)
(6.58406 4.98895e-19 0)
(6.58784 4.91881e-19 0)
(6.59161 5.05926e-19 0)
(6.59538 5.34039e-19 0)
(6.59912 5.46408e-19 0)
(6.60286 5.51804e-19 0)
(6.60659 5.57203e-19 0)
(6.6103 5.62065e-19 0)
(6.614 5.7488e-19 0)
(6.61769 6.13724e-19 0)
(6.62137 6.49914e-19 0)
(6.62504 6.88063e-19 0)
(6.62869 7.18577e-19 0)
(6.63233 7.19381e-19 0)
(6.63596 7.05607e-19 0)
(6.63958 7.00815e-19 0)
(6.64319 7.41715e-19 0)
(6.64679 7.69247e-19 0)
(6.65038 7.61523e-19 0)
(6.65395 7.84733e-19 0)
(6.65752 8.32226e-19 0)
(6.66107 8.96681e-19 0)
(6.66462 9.83289e-19 0)
(6.66815 1.02418e-18 0)
(6.67168 1.01568e-18 0)
(6.67519 1.00352e-18 0)
(6.6787 9.95145e-19 0)
(6.6822 9.85979e-19 0)
(6.68568 9.75425e-19 0)
(6.68916 9.66084e-19 0)
(6.69262 9.57369e-19 0)
(6.69607 9.49081e-19 0)
(6.6995 9.41072e-19 0)
(6.7029 9.33255e-19 0)
(6.70628 9.25583e-19 0)
(6.70963 9.18029e-19 0)
(6.71295 9.10618e-19 0)
(6.71621 9.03362e-19 0)
(6.71943 8.96271e-19 0)
(6.7226 8.8935e-19 0)
(6.72571 8.82609e-19 0)
(6.72876 8.76044e-19 0)
(6.73176 8.69761e-19 0)
(6.73473 8.63803e-19 0)
(6.73769 8.57997e-19 0)
(6.74064 8.52238e-19 0)
(6.74356 8.46815e-19 0)
(6.74648 8.3868e-19 0)
(6.74938 8.27826e-19 0)
(6.75227 8.1733e-19 0)
(6.75515 8.06961e-19 0)
(6.75801 7.96729e-19 0)
(6.76085 7.86628e-19 0)
(6.76369 7.76652e-19 0)
(6.76651 7.66796e-19 0)
(6.76931 7.57052e-19 0)
(6.77211 7.4743e-19 0)
(6.77488 7.37922e-19 0)
(6.77765 7.28522e-19 0)
(6.7804 7.1922e-19 0)
(6.78314 7.1001e-19 0)
(6.78586 7.00884e-19 0)
(6.78857 6.91836e-19 0)
(6.79127 6.82857e-19 0)
(6.79395 6.73959e-19 0)
(6.79662 6.65134e-19 0)
(6.79927 6.56379e-19 0)
(6.80191 6.47688e-19 0)
(6.80454 6.39056e-19 0)
(6.80715 6.30478e-19 0)
(6.80975 6.21951e-19 0)
(6.81234 6.1347e-19 0)
(6.81491 6.05032e-19 0)
(6.81747 5.96634e-19 0)
(6.82001 5.88273e-19 0)
(6.82254 5.79947e-19 0)
(6.82505 5.71655e-19 0)
(6.82755 5.63394e-19 0)
(6.83004 5.55163e-19 0)
(6.83251 5.46961e-19 0)
(6.83497 5.38787e-19 0)
(6.83742 5.30639e-19 0)
(6.83985 5.22518e-19 0)
(6.84226 5.14422e-19 0)
(6.84466 5.06351e-19 0)
(6.84705 4.98306e-19 0)
(6.84942 4.90285e-19 0)
(6.85178 4.8229e-19 0)
(6.85412 4.7432e-19 0)
(6.85645 4.66375e-19 0)
(6.85877 4.58456e-19 0)
(6.86106 4.50563e-19 0)
(6.86335 4.42698e-19 0)
(6.86562 4.3486e-19 0)
(6.86787 4.27051e-19 0)
(6.87011 4.19271e-19 0)
(6.87234 4.11522e-19 0)
(6.87455 4.03804e-19 0)
(6.87674 3.96118e-19 0)
(6.87892 3.88466e-19 0)
(6.88109 3.80847e-19 0)
(6.88324 3.73265e-19 0)
(6.88537 3.65718e-19 0)
(6.88749 3.58209e-19 0)
(6.88959 3.50738e-19 0)
(6.89168 3.43307e-19 0)
(6.89375 3.35916e-19 0)
(6.8958 3.28567e-19 0)
(6.89784 3.2126e-19 0)
(6.89987 3.13995e-19 0)
(6.90188 3.06775e-19 0)
(6.90387 2.99599e-19 0)
(6.90584 2.92469e-19 0)
(6.9078 2.85385e-19 0)
(6.90975 2.78347e-19 0)
(6.91167 2.71357e-19 0)
(6.91358 2.64415e-19 0)
(6.91548 2.57521e-19 0)
(6.91735 2.50676e-19 0)
(6.91922 2.4388e-19 0)
(6.92106 2.37134e-19 0)
(6.92289 2.30437e-19 0)
(6.9247 2.23791e-19 0)
(6.92649 2.17195e-19 0)
(6.92827 2.10649e-19 0)
(6.93002 2.04155e-19 0)
(6.93177 1.97711e-19 0)
(6.93349 1.91318e-19 0)
(6.9352 1.84977e-19 0)
(6.93689 1.78686e-19 0)
(6.93856 1.72447e-19 0)
(6.94021 1.66258e-19 0)
(6.94185 1.60121e-19 0)
(6.94346 1.54034e-19 0)
(6.94506 1.47999e-19 0)
(6.94664 1.42014e-19 0)
(6.94821 1.3608e-19 0)
(6.94975 1.30197e-19 0)
(6.95128 1.24364e-19 0)
(6.95279 1.18581e-19 0)
(6.95428 1.12848e-19 0)
(6.95575 1.07165e-19 0)
(6.9572 1.01532e-19 0)
(6.95863 9.59477e-20 0)
(6.96005 9.04128e-20 0)
(6.96144 8.49268e-20 0)
(6.96282 7.94896e-20 0)
(6.96418 7.41007e-20 0)
(6.96551 6.876e-20 0)
(6.96683 6.34673e-20 0)
(6.96813 5.82221e-20 0)
(6.96941 5.30244e-20 0)
(6.97067 4.78737e-20 0)
(6.97191 4.27699e-20 0)
(6.97313 3.77127e-20 0)
(6.97433 3.27016e-20 0)
(6.97551 2.77364e-20 0)
(6.97667 2.28169e-20 0)
(6.97781 1.79428e-20 0)
(6.97893 1.31138e-20 0)
(6.98002 8.32945e-21 0)
(6.9811 3.58938e-21 0)
(6.98216 -1.10677e-21 0)
(6.9832 -5.75933e-21 0)
(6.98422 -1.03687e-20 0)
(6.98521 -1.49351e-20 0)
(6.98619 -1.94591e-20 0)
(6.98714 -2.39408e-20 0)
(6.98808 -2.83807e-20 0)
(6.98899 -3.27791e-20 0)
(6.98988 -3.71363e-20 0)
(6.99076 -4.14478e-20 0)
(6.99161 -4.57139e-20 0)
(6.99244 -4.99348e-20 0)
(6.99324 -5.4111e-20 0)
(6.99403 -5.82427e-20 0)
(6.9948 -6.23303e-20 0)
(6.99554 -6.63739e-20 0)
(6.99627 -7.03741e-20 0)
(6.99697 -7.43309e-20 0)
(6.99765 -7.82447e-20 0)
(6.99831 -8.21159e-20 0)
(6.99894 -8.59446e-20 0)
(6.99956 -8.97311e-20 0)
(7.00016 -9.34757e-20 0)
(7.00073 -9.71787e-20 0)
(7.00128 -1.0084e-19 0)
(7.00181 -1.04461e-19 0)
(7.00232 -1.0804e-19 0)
(7.0028 -1.11579e-19 0)
(7.00327 -1.15077e-19 0)
(7.00371 -1.18535e-19 0)
(7.00413 -1.21953e-19 0)
(7.00453 -1.2533e-19 0)
(7.0049 -1.28668e-19 0)
(7.00526 -1.31966e-19 0)
(7.00559 -1.35225e-19 0)
(7.0059 -1.38444e-19 0)
(7.00619 -1.41623e-19 0)
(7.00645 -1.44761e-19 0)
(7.0067 -1.47859e-19 0)
(7.00692 -1.50916e-19 0)
(7.00712 -1.53934e-19 0)
(7.0073 -1.56914e-19 0)
(7.00745 -1.59855e-19 0)
(7.00759 -1.62757e-19 0)
(7.0077 -1.65622e-19 0)
(7.00779 -1.68447e-19 0)
(7.00785 -1.71234e-19 0)
(7.0079 -1.73983e-19 0)
(7.00792 -1.76694e-19 0)
(7.00792 -1.79366e-19 0)
(7.0079 -1.82001e-19 0)
(7.00785 -1.84598e-19 0)
(7.00779 -1.87157e-19 0)
(7.0077 -1.8968e-19 0)
(7.00759 -1.92164e-19 0)
(7.00745 -1.94612e-19 0)
(7.0073 -1.97024e-19 0)
(7.00712 -1.99398e-19 0)
(7.00692 -2.01737e-19 0)
(7.0067 -2.04039e-19 0)
(7.00645 -2.06305e-19 0)
(7.00619 -2.08536e-19 0)
(7.0059 -2.10731e-19 0)
(7.00559 -2.12891e-19 0)
(7.00526 -2.15016e-19 0)
(7.0049 -2.17106e-19 0)
(7.00453 -2.19161e-19 0)
(7.00413 -2.21182e-19 0)
(7.00371 -2.23169e-19 0)
(7.00327 -2.25121e-19 0)
(7.0028 -2.27038e-19 0)
(7.00232 -2.28918e-19 0)
(7.00181 -2.30762e-19 0)
(7.00128 -2.32571e-19 0)
(7.00073 -2.34344e-19 0)
(7.00015 -2.36082e-19 0)
(6.99956 -2.37785e-19 0)
(6.99894 -2.39453e-19 0)
(6.99831 -2.41087e-19 0)
(6.99765 -2.42687e-19 0)
(6.99697 -2.44253e-19 0)
(6.99627 -2.45784e-19 0)
(6.99554 -2.47283e-19 0)
(6.9948 -2.48747e-19 0)
(6.99403 -2.50179e-19 0)
(6.99324 -2.51578e-19 0)
(6.99244 -2.52945e-19 0)
(6.99161 -2.54279e-19 0)
(6.99076 -2.55581e-19 0)
(6.98988 -2.56851e-19 0)
(6.98899 -2.5809e-19 0)
(6.98808 -2.59297e-19 0)
(6.98714 -2.60474e-19 0)
(6.98619 -2.61619e-19 0)
(6.98521 -2.62735e-19 0)
(6.98422 -2.6382e-19 0)
(6.9832 -2.64875e-19 0)
(6.98216 -2.659e-19 0)
(6.9811 -2.66897e-19 0)
(6.98002 -2.67864e-19 0)
(6.97893 -2.68802e-19 0)
(6.97781 -2.69712e-19 0)
(6.97667 -2.70594e-19 0)
(6.97551 -2.71448e-19 0)
(6.97433 -2.72275e-19 0)
(6.97313 -2.73075e-19 0)
(6.97191 -2.73848e-19 0)
(6.97067 -2.74595e-19 0)
(6.96941 -2.75316e-19 0)
(6.96813 -2.76011e-19 0)
(6.96683 -2.76681e-19 0)
(6.96551 -2.77326e-19 0)
(6.96418 -2.77947e-19 0)
(6.96282 -2.78544e-19 0)
(6.96144 -2.79118e-19 0)
(6.96005 -2.7967e-19 0)
(6.95863 -2.80199e-19 0)
(6.9572 -2.80706e-19 0)
(6.95575 -2.81193e-19 0)
(6.95428 -2.81659e-19 0)
(6.95279 -2.82107e-19 0)
(6.95128 -2.82535e-19 0)
(6.94975 -2.82947e-19 0)
(6.94821 -2.83342e-19 0)
(6.94664 -2.83721e-19 0)
(6.94506 -2.84087e-19 0)
(6.94346 -2.84441e-19 0)
(6.94185 -2.84775e-19 0)
(6.94021 -2.85091e-19 0)
(6.93856 -2.8539e-19 0)
(6.93688 -2.8568e-19 0)
(6.9352 -2.85963e-19 0)
(6.93349 -2.86232e-19 0)
(6.93176 -2.86488e-19 0)
(6.93002 -2.86735e-19 0)
(6.92826 -2.86973e-19 0)
(6.92649 -2.87206e-19 0)
(6.9247 -2.87436e-19 0)
(6.92289 -2.87666e-19 0)
(6.92106 -2.87899e-19 0)
(6.91921 -2.88139e-19 0)
(6.91735 -2.88388e-19 0)
(6.91548 -2.88651e-19 0)
(6.91358 -2.8893e-19 0)
(6.91167 -2.89229e-19 0)
(6.90975 -2.8955e-19 0)
(6.9078 -2.89896e-19 0)
(6.90584 -2.9027e-19 0)
(6.90387 -2.90675e-19 0)
(6.90187 -2.91097e-19 0)
(6.89987 -2.9154e-19 0)
(6.89784 -2.92005e-19 0)
(6.8958 -2.92494e-19 0)
(6.89375 -2.93007e-19 0)
(6.89168 -2.93543e-19 0)
(6.88959 -2.94099e-19 0)
(6.88749 -2.94673e-19 0)
(6.88537 -2.95278e-19 0)
(6.88323 -2.95911e-19 0)
(6.88109 -2.96571e-19 0)
(6.87892 -2.97255e-19 0)
(6.87674 -2.97965e-19 0)
(6.87455 -2.98703e-19 0)
(6.87234 -2.99476e-19 0)
(6.87011 -3.00298e-19 0)
(6.86787 -3.01187e-19 0)
(6.86562 -3.02175e-19 0)
(6.86335 -3.03302e-19 0)
(6.86106 -3.04625e-19 0)
(6.85876 -3.06204e-19 0)
(6.85645 -3.0812e-19 0)
(6.85412 -3.10481e-19 0)
(6.85178 -3.13407e-19 0)
(6.84942 -3.17034e-19 0)
(6.84705 -3.21507e-19 0)
(6.84466 -3.26959e-19 0)
(6.84226 -3.33492e-19 0)
(6.83985 -3.41107e-19 0)
(6.83742 -3.49683e-19 0)
(6.83497 -3.58611e-19 0)
(6.83251 -3.75029e-19 0)
(6.83004 -3.76824e-19 0)
(6.82755 -3.78386e-19 0)
(6.82505 -3.94058e-19 0)
(6.82254 -4.01796e-19 0)
(6.82001 -4.08735e-19 0)
(6.81747 -4.14255e-19 0)
(6.81491 -4.18236e-19 0)
(6.81234 -4.20702e-19 0)
(6.80975 -4.21754e-19 0)
(6.80715 -4.21528e-19 0)
(6.80454 -4.2017e-19 0)
(6.80191 -4.17814e-19 0)
(6.79927 -4.14582e-19 0)
(6.79662 -4.10567e-19 0)
(6.79395 -4.05849e-19 0)
(6.79127 -4.00507e-19 0)
(6.78857 -3.9458e-19 0)
(6.78586 -3.88108e-19 0)
(6.78314 -3.81121e-19 0)
(6.7804 -3.73636e-19 0)
(6.77765 -3.65665e-19 0)
(6.77488 -3.57213e-19 0)
(6.77211 -3.48297e-19 0)
(6.76931 -3.38914e-19 0)
(6.76651 -3.2906e-19 0)
(6.76369 -3.18729e-19 0)
(6.76085 -3.07918e-19 0)
(6.75801 -2.9662e-19 0)
(6.75515 -2.84844e-19 0)
(6.75227 -2.72586e-19 0)
(6.74938 -2.59854e-19 0)
(6.74648 -2.46434e-19 0)
(6.74356 -2.35189e-19 0)
(6.74063 -2.28984e-19 0)
(6.73769 -2.2761e-19 0)
(6.73473 -2.31395e-19 0)
(6.73176 -2.37357e-19 0)
(6.72876 -2.42432e-19 0)
(6.7257 -2.46959e-19 0)
(6.7226 -2.51076e-19 0)
(6.71943 -2.5476e-19 0)
(6.71621 -2.57985e-19 0)
(6.71294 -2.60729e-19 0)
(6.70963 -2.62975e-19 0)
(6.70628 -2.64709e-19 0)
(6.7029 -2.65923e-19 0)
(6.6995 -2.66613e-19 0)
(6.69607 -2.6678e-19 0)
(6.69262 -2.66428e-19 0)
(6.68916 -2.65566e-19 0)
(6.68568 -2.64209e-19 0)
(6.6822 -2.62375e-19 0)
(6.6787 -2.6009e-19 0)
(6.67519 -2.57351e-19 0)
(6.67168 -2.54193e-19 0)
(6.66815 -2.5066e-19 0)
(6.66462 -2.46762e-19 0)
(6.66107 -2.42546e-19 0)
(6.65752 -2.38065e-19 0)
(6.65395 -2.33332e-19 0)
(6.65037 -2.28359e-19 0)
(6.64679 -2.23143e-19 0)
(6.64319 -2.17701e-19 0)
(6.63958 -2.11981e-19 0)
(6.63596 -2.0589e-19 0)
(6.63233 -1.99313e-19 0)
(6.62869 -1.921e-19 0)
(6.62503 -1.83826e-19 0)
(6.62137 -1.77337e-19 0)
(6.61769 -1.72456e-19 0)
(6.614 -1.65208e-19 0)
(6.6103 -1.62661e-19 0)
(6.60659 -1.57151e-19 0)
(6.60286 -1.52236e-19 0)
(6.59912 -1.51456e-19 0)
(6.59537 -1.47246e-19 0)
(6.59161 -1.46572e-19 0)
(6.58784 -1.48673e-19 0)
(6.58405 -1.53498e-19 0)
(6.58026 -1.60967e-19 0)
(6.57645 -1.71025e-19 0)
(6.57263 -1.86559e-19 0)
(6.56879 -1.95774e-19 0)
(6.56495 -2.04494e-19 0)
(6.56109 -2.18725e-19 0)
(6.55722 -2.26644e-19 0)
(6.55334 -2.35868e-19 0)
(6.54944 -2.58949e-19 0)
(6.54553 -2.8229e-19 0)
(6.54161 -2.89283e-19 0)
(6.53768 -2.89649e-19 0)
(6.53374 -2.88402e-19 0)
(6.52978 -2.8565e-19 0)
(6.52581 -2.8185e-19 0)
(6.52183 -2.77272e-19 0)
(6.51784 -2.72082e-19 0)
(6.51383 -2.66371e-19 0)
(6.50981 -2.60176e-19 0)
(6.50578 -2.53501e-19 0)
(6.50174 -2.46322e-19 0)
(6.49768 -2.38599e-19 0)
(6.49361 -2.3024e-19 0)
(6.48953 -2.21133e-19 0)
(6.48543 -2.11179e-19 0)
(6.48133 -2.00203e-19 0)
(6.4772 -1.87941e-19 0)
(6.47307 -1.7408e-19 0)
(6.46892 -1.58191e-19 0)
(6.46476 -1.39676e-19 0)
(6.46059 -1.17331e-19 0)
(6.4564 -9.778e-20 0)
(6.4522 -1.32669e-19 0)
(6.44799 -1.70205e-19 0)
(6.44377 -1.5557e-19 0)
(6.43953 -1.37546e-19 0)
(6.43527 -1.22956e-19 0)
(6.43101 -1.10609e-19 0)
(6.42673 -9.9928e-20 0)
(6.42243 -9.04735e-20 0)
(6.41812 -8.19653e-20 0)
(6.4138 -7.42095e-20 0)
(6.40947 -6.70403e-20 0)
(6.40512 -6.0371e-20 0)
(6.40076 -5.41438e-20 0)
(6.39638 -4.83239e-20 0)
(6.39199 -4.28554e-20 0)
(6.38758 -3.77266e-20 0)
(6.38316 -3.293e-20 0)
(6.37873 -2.84597e-20 0)
(6.37428 -2.431e-20 0)
(6.36982 -2.07013e-20 0)
(6.36534 -1.45366e-20 0)
(6.36085 -5.80752e-21 0)
(6.35634 2.39892e-21 0)
(6.35182 1.03142e-20 0)
(6.34728 1.79474e-20 0)
(6.34273 2.53103e-20 0)
(6.33816 3.24163e-20 0)
(6.33358 3.9244e-20 0)
(6.32898 4.58067e-20 0)
(6.32437 5.21186e-20 0)
(6.31974 5.81952e-20 0)
(6.31509 6.40524e-20 0)
(6.31043 6.97066e-20 0)
(6.30575 7.51744e-20 0)
(6.30106 8.04723e-20 0)
(6.29635 8.56166e-20 0)
(6.29163 9.06263e-20 0)
(6.28689 9.54865e-20 0)
(6.28213 1.00446e-19 0)
(6.27735 1.02442e-19 0)
(6.27256 1.0149e-19 0)
(6.26776 1.00662e-19 0)
(6.26293 9.97536e-20 0)
(6.25809 9.88266e-20 0)
(6.25323 9.76755e-20 0)
(6.24835 9.93685e-20 0)
(6.24346 1.04164e-19 0)
(6.23854 1.05686e-19 0)
(6.23361 1.07483e-19 0)
(6.22867 1.09115e-19 0)
(6.2237 1.13194e-19 0)
(6.21872 1.26316e-19 0)
(6.21371 1.39469e-19 0)
(6.20869 1.43897e-19 0)
(6.20365 1.42412e-19 0)
(6.19859 1.47075e-19 0)
(6.19351 1.57509e-19 0)
(6.18841 1.67611e-19 0)
(6.1833 1.77888e-19 0)
(6.17816 1.88386e-19 0)
(6.173 1.99206e-19 0)
(6.16782 2.11046e-19 0)
(6.16263 2.17585e-19 0)
(6.15741 1.70497e-19 0)
(6.15217 1.22931e-19 0)
(6.14691 1.28184e-19 0)
(6.14163 1.37952e-19 0)
(6.13633 1.45715e-19 0)
(6.13101 1.55012e-19 0)
(6.12566 1.69024e-19 0)
(6.1203 1.84794e-19 0)
(6.11491 1.99511e-19 0)
(6.1095 2.13439e-19 0)
(6.10407 2.26588e-19 0)
(6.09861 2.3896e-19 0)
(6.09313 2.50591e-19 0)
(6.08763 2.61483e-19 0)
(6.08211 2.71645e-19 0)
(6.07657 2.81091e-19 0)
(6.071 2.89805e-19 0)
(6.06541 2.97934e-19 0)
(6.05979 3.04041e-19 0)
(6.05416 3.06605e-19 0)
(6.0485 3.07074e-19 0)
(6.04281 3.0844e-19 0)
(6.03711 3.10736e-19 0)
(6.03138 3.10896e-19 0)
(6.02562 3.08852e-19 0)
(6.01985 3.09087e-19 0)
(6.01405 3.13087e-19 0)
(6.00823 3.17792e-19 0)
(6.00239 3.22016e-19 0)
(5.99652 3.24378e-19 0)
(5.99063 3.248e-19 0)
(5.98471 3.26482e-19 0)
(5.97877 3.29434e-19 0)
(5.97279 3.323e-19 0)
(5.96678 3.35454e-19 0)
(5.96074 3.39178e-19 0)
(5.95466 3.45488e-19 0)
(5.94855 3.55509e-19 0)
(5.9424 3.60879e-19 0)
(5.93621 3.61661e-19 0)
(5.92999 3.63422e-19 0)
(5.92373 3.70039e-19 0)
(5.91743 3.81601e-19 0)
(5.91109 3.92897e-19 0)
(5.90472 4.04821e-19 0)
(5.8983 4.17779e-19 0)
(5.89185 4.30684e-19 0)
(5.88535 4.41225e-19 0)
(5.87881 4.43119e-19 0)
(5.87224 4.17859e-19 0)
(5.86561 3.88361e-19 0)
(5.85895 3.77426e-19 0)
(5.85224 3.69259e-19 0)
(5.84548 3.61671e-19 0)
(5.83868 3.54798e-19 0)
(5.83184 3.48598e-19 0)
(5.82494 3.43073e-19 0)
(5.818 3.38256e-19 0)
(5.81101 3.34201e-19 0)
(5.80397 3.30888e-19 0)
(5.79688 3.29803e-19 0)
(5.78974 3.31471e-19 0)
(5.78255 3.29034e-19 0)
(5.7753 3.27859e-19 0)
(5.768 3.27768e-19 0)
(5.76064 3.30257e-19 0)
(5.75323 3.41632e-19 0)
(5.74577 3.48126e-19 0)
(5.73824 3.39284e-19 0)
(5.73066 3.30792e-19 0)
(5.72301 3.38767e-19 0)
(5.71531 3.53155e-19 0)
(5.70754 3.61595e-19 0)
(5.69971 3.46786e-19 0)
(5.69182 3.29051e-19 0)
(5.68386 3.29705e-19 0)
(5.67583 3.34106e-19 0)
(5.66773 3.37606e-19 0)
(5.65957 3.38837e-19 0)
(5.65133 3.36544e-19 0)
(5.64302 3.30294e-19 0)
(5.63464 3.2076e-19 0)
(5.62618 3.06276e-19 0)
(5.61765 2.95711e-19 0)
(5.60904 2.85015e-19 0)
(5.60035 2.6981e-19 0)
(5.59157 2.57431e-19 0)
(5.58272 2.44092e-19 0)
(5.57377 2.31062e-19 0)
(5.56474 2.19361e-19 0)
(5.55563 2.08584e-19 0)
(5.54642 1.98505e-19 0)
(5.53712 1.88894e-19 0)
(5.52772 1.79618e-19 0)
(5.51823 1.70338e-19 0)
(5.50864 1.63894e-19 0)
(5.49895 1.61884e-19 0)
(5.48915 1.59662e-19 0)
(5.47925 1.55697e-19 0)
(5.46924 1.53068e-19 0)
(5.45911 1.51746e-19 0)
(5.44888 1.48735e-19 0)
(5.43853 1.42365e-19 0)
(5.42805 1.3702e-19 0)
(5.41746 1.35701e-19 0)
(5.40674 1.35325e-19 0)
(5.39589 1.32844e-19 0)
(5.38491 1.29796e-19 0)
(5.3738 1.27631e-19 0)
(5.36254 1.24549e-19 0)
(5.35114 1.20267e-19 0)
(5.3396 1.15908e-19 0)
(5.3279 1.12405e-19 0)
(5.31605 1.09031e-19 0)
(5.30405 1.03671e-19 0)
(5.29187 9.23066e-20 0)
(5.27953 6.40255e-20 0)
(5.26702 3.56092e-20 0)
(5.25433 2.27208e-20 0)
(5.24145 1.44791e-20 0)
(5.22839 9.91609e-21 0)
(5.21513 8.30457e-21 0)
(5.20166 8.91214e-21 0)
(5.188 1.12163e-20 0)
(5.17411 1.49963e-20 0)
(5.16001 1.85141e-20 0)
(5.14567 2.14248e-20 0)
(5.1311 2.66946e-20 0)
(5.11629 3.42993e-20 0)
(5.10122 4.10444e-20 0)
(5.08589 4.84434e-20 0)
(5.07029 5.8113e-20 0)
(5.05441 6.70792e-20 0)
(5.03824 7.22406e-20 0)
(5.02176 7.50307e-20 0)
(5.00497 7.82689e-20 0)
(4.98785 8.16187e-20 0)
(4.9704 8.47654e-20 0)
(4.95258 8.74796e-20 0)
(4.9344 8.81054e-20 0)
(4.91584 8.21989e-20 0)
(4.89688 5.8791e-20 0)
(4.87749 3.3731e-20 0)
(4.85767 2.37846e-20 0)
(4.83739 1.82844e-20 0)
(4.81664 1.43848e-20 0)
(4.79538 1.19637e-20 0)
(4.77359 1.20877e-20 0)
(4.75125 1.66205e-20 0)
(4.72833 2.02105e-20 0)
(4.7048 1.16112e-20 0)
(4.68062 3.66532e-21 0)
(4.65576 1.03344e-20 0)
(4.63018 2.07149e-20 0)
(4.60384 2.96123e-20 0)
(4.57668 3.74247e-20 0)
(4.54867 4.57714e-20 0)
(4.51974 5.66704e-20 0)
(4.48984 6.93515e-20 0)
(4.4589 7.75622e-20 0)
(4.42685 5.35059e-20 0)
(4.3936 2.89571e-20 0)
(4.35907 3.89785e-20 0)
(4.32315 5.41952e-20 0)
(4.28574 6.70712e-20 0)
(4.24672 7.65414e-20 0)
(4.20594 8.32042e-20 0)
(4.16324 8.84909e-20 0)
(4.11842 9.44136e-20 0)
(4.07124 9.76653e-20 0)
(4.02143 8.35176e-20 0)
(3.96868 6.85894e-20 0)
(3.91265 7.24305e-20 0)
(3.85297 7.97435e-20 0)
(3.78917 8.20197e-20 0)
(3.72072 5.86519e-20 0)
(3.64698 3.328e-20 0)
(3.56718 3.2063e-20 0)
(3.48042 3.23369e-20 0)
(3.38559 3.00163e-20 0)
(3.28135 2.5262e-20 0)
(3.16607 1.98701e-20 0)
(3.03779 1.5894e-20 0)
(2.89414 1.08997e-20 0)
(2.73222 1.2856e-20 0)
(2.54797 1.51739e-20 0)
(2.33624 8.80025e-21 0)
(2.09245 3.23131e-21 0)
(1.81503 -2.18554e-21 0)
(1.50821 -3.38119e-21 0)
(1.18201 3.55438e-22 0)
(0.846878 6.54175e-22 0)
(0.508843 -1.42241e-21 0)
(0.169838 1.12459e-21 0)
)
;

boundaryField
{
    top_wall
    {
        type            noSlip;
    }
    inlet
    {
        type            cyclic;
    }
    bot_wall
    {
        type            noSlip;
    }
    outlet
    {
        type            cyclic;
    }
    frontAndBack
    {
        type            empty;
    }
}


// ************************************************************************* //
