# Wall shear stress
# Time          	patch           	min             	max             
0.5             	top_wall	(-1.27962155e-01 1.34650827e-22 0.00000000e+00)	(-1.27962155e-01 1.34650827e-22 0.00000000e+00)
0.5             	bot_wall	(-1.27962307e-01 1.06085275e-18 0.00000000e+00)	(-1.27962307e-01 1.06085275e-18 0.00000000e+00)
1               	top_wall	(-1.19322620e-01 4.90566882e-22 0.00000000e+00)	(-1.19322620e-01 4.90566882e-22 0.00000000e+00)
1               	bot_wall	(-1.19322732e-01 1.13990319e-18 0.00000000e+00)	(-1.19322732e-01 1.13990319e-18 0.00000000e+00)
1.5             	top_wall	(-1.14221824e-01 -2.93827494e-22 0.00000000e+00)	(-1.14221824e-01 -2.93827494e-22 0.00000000e+00)
1.5             	bot_wall	(-1.14221923e-01 8.99703882e-19 0.00000000e+00)	(-1.14221923e-01 8.99703882e-19 0.00000000e+00)
2               	top_wall	(-1.10750699e-01 8.37864040e-22 0.00000000e+00)	(-1.10750699e-01 8.37864040e-22 0.00000000e+00)
2               	bot_wall	(-1.10750790e-01 5.64273053e-19 0.00000000e+00)	(-1.10750790e-01 5.64273053e-19 0.00000000e+00)
2.5             	top_wall	(-1.08252382e-01 1.09961510e-22 0.00000000e+00)	(-1.08252382e-01 1.09961510e-22 0.00000000e+00)
2.5             	bot_wall	(-1.08252469e-01 1.00669509e-18 0.00000000e+00)	(-1.08252469e-01 1.00669509e-18 0.00000000e+00)
3               	top_wall	(-1.06508823e-01 -6.13705434e-22 0.00000000e+00)	(-1.06508823e-01 -6.13705434e-22 0.00000000e+00)
3               	bot_wall	(-1.06508907e-01 1.25545043e-18 0.00000000e+00)	(-1.06508907e-01 1.25545043e-18 0.00000000e+00)
3.5             	top_wall	(-1.05163169e-01 -3.16700700e-22 0.00000000e+00)	(-1.05163169e-01 -3.16700700e-22 0.00000000e+00)
3.5             	bot_wall	(-1.05163250e-01 1.27374601e-18 0.00000000e+00)	(-1.05163250e-01 1.27374601e-18 0.00000000e+00)
4               	top_wall	(-1.04109777e-01 -2.46936246e-22 0.00000000e+00)	(-1.04109777e-01 -2.46936246e-22 0.00000000e+00)
4               	bot_wall	(-1.04109857e-01 1.61106175e-18 0.00000000e+00)	(-1.04109857e-01 1.61106175e-18 0.00000000e+00)
4.5             	top_wall	(-1.03278018e-01 5.00693709e-22 0.00000000e+00)	(-1.03278018e-01 5.00693709e-22 0.00000000e+00)
4.5             	bot_wall	(-1.03278095e-01 1.28637827e-18 0.00000000e+00)	(-1.03278095e-01 1.28637827e-18 0.00000000e+00)
5               	top_wall	(-1.02616352e-01 -1.18272132e-22 0.00000000e+00)	(-1.02616352e-01 -1.18272132e-22 0.00000000e+00)
5               	bot_wall	(-1.02616426e-01 4.77064795e-19 0.00000000e+00)	(-1.02616426e-01 4.77064795e-19 0.00000000e+00)
5.5             	top_wall	(-1.02066353e-01 2.20654486e-22 0.00000000e+00)	(-1.02066353e-01 2.20654486e-22 0.00000000e+00)
5.5             	bot_wall	(-1.02066424e-01 1.95019317e-19 0.00000000e+00)	(-1.02066424e-01 1.95019317e-19 0.00000000e+00)
6               	top_wall	(-1.01579180e-01 2.02663094e-22 0.00000000e+00)	(-1.01579180e-01 2.02663094e-22 0.00000000e+00)
6               	bot_wall	(-1.01579248e-01 8.16855690e-19 0.00000000e+00)	(-1.01579248e-01 8.16855690e-19 0.00000000e+00)
6.5             	top_wall	(-1.01159099e-01 7.07823152e-22 0.00000000e+00)	(-1.01159099e-01 7.07823152e-22 0.00000000e+00)
6.5             	bot_wall	(-1.01159165e-01 9.59035359e-19 0.00000000e+00)	(-1.01159165e-01 9.59035359e-19 0.00000000e+00)
7               	top_wall	(-1.00798168e-01 2.50372692e-21 0.00000000e+00)	(-1.00798168e-01 2.50372692e-21 0.00000000e+00)
7               	bot_wall	(-1.00798231e-01 1.29654773e-18 0.00000000e+00)	(-1.00798231e-01 1.29654773e-18 0.00000000e+00)
7.5             	top_wall	(-1.00490466e-01 2.70614424e-22 0.00000000e+00)	(-1.00490466e-01 2.70614424e-22 0.00000000e+00)
7.5             	bot_wall	(-1.00490526e-01 1.20544154e-18 0.00000000e+00)	(-1.00490526e-01 1.20544154e-18 0.00000000e+00)
8               	top_wall	(-1.00229227e-01 -5.31663081e-22 0.00000000e+00)	(-1.00229227e-01 -5.31663081e-22 0.00000000e+00)
8               	bot_wall	(-1.00229285e-01 6.91487828e-19 0.00000000e+00)	(-1.00229285e-01 6.91487828e-19 0.00000000e+00)
8.5             	top_wall	(-1.00012559e-01 9.03097318e-22 0.00000000e+00)	(-1.00012559e-01 9.03097318e-22 0.00000000e+00)
8.5             	bot_wall	(-1.00012615e-01 5.35152268e-19 0.00000000e+00)	(-1.00012615e-01 5.35152268e-19 0.00000000e+00)
9               	top_wall	(-9.98416291e-02 -5.74052323e-22 0.00000000e+00)	(-9.98416291e-02 -5.74052323e-22 0.00000000e+00)
9               	bot_wall	(-9.98416827e-02 1.00310738e-18 0.00000000e+00)	(-9.98416827e-02 1.00310738e-18 0.00000000e+00)
9.5             	top_wall	(-9.97184341e-02 -1.23884903e-22 0.00000000e+00)	(-9.97184341e-02 -1.23884903e-22 0.00000000e+00)
9.5             	bot_wall	(-9.97184857e-02 8.92789199e-19 0.00000000e+00)	(-9.97184857e-02 8.92789199e-19 0.00000000e+00)
10              	top_wall	(-9.96439741e-02 -1.51558660e-22 0.00000000e+00)	(-9.96439741e-02 -1.51558660e-22 0.00000000e+00)
10              	bot_wall	(-9.96440237e-02 6.29421992e-19 0.00000000e+00)	(-9.96440237e-02 6.29421992e-19 0.00000000e+00)
10.5            	top_wall	(-9.96153752e-02 1.31440739e-21 0.00000000e+00)	(-9.96153752e-02 1.31440739e-21 0.00000000e+00)
10.5            	bot_wall	(-9.96154229e-02 1.06496308e-18 0.00000000e+00)	(-9.96154229e-02 1.06496308e-18 0.00000000e+00)
11              	top_wall	(-9.96250805e-02 1.20913652e-21 0.00000000e+00)	(-9.96250805e-02 1.20913652e-21 0.00000000e+00)
11              	bot_wall	(-9.96251263e-02 1.13152618e-18 0.00000000e+00)	(-9.96251263e-02 1.13152618e-18 0.00000000e+00)
11.5            	top_wall	(-9.96641861e-02 6.75523487e-23 0.00000000e+00)	(-9.96641861e-02 6.75523487e-23 0.00000000e+00)
11.5            	bot_wall	(-9.96642303e-02 1.03015538e-18 0.00000000e+00)	(-9.96642303e-02 1.03015538e-18 0.00000000e+00)
12              	top_wall	(-9.97257709e-02 1.29337788e-22 0.00000000e+00)	(-9.97257709e-02 1.29337788e-22 0.00000000e+00)
12              	bot_wall	(-9.97258135e-02 1.06952401e-18 0.00000000e+00)	(-9.97258135e-02 1.06952401e-18 0.00000000e+00)
12.5            	top_wall	(-9.98057856e-02 -2.79833000e-22 0.00000000e+00)	(-9.98057856e-02 -2.79833000e-22 0.00000000e+00)
12.5            	bot_wall	(-9.98058266e-02 1.21963876e-18 0.00000000e+00)	(-9.98058266e-02 1.21963876e-18 0.00000000e+00)
13              	top_wall	(-9.99012247e-02 -2.25331164e-22 0.00000000e+00)	(-9.99012247e-02 -2.25331164e-22 0.00000000e+00)
13              	bot_wall	(-9.99012642e-02 1.20187431e-18 0.00000000e+00)	(-9.99012642e-02 1.20187431e-18 0.00000000e+00)
13.5            	top_wall	(-1.00010279e-01 8.67394956e-22 0.00000000e+00)	(-1.00010279e-01 8.67394956e-22 0.00000000e+00)
13.5            	bot_wall	(-1.00010317e-01 1.07871263e-18 0.00000000e+00)	(-1.00010317e-01 1.07871263e-18 0.00000000e+00)
14              	top_wall	(-1.00131182e-01 -8.27278493e-22 0.00000000e+00)	(-1.00131182e-01 -8.27278493e-22 0.00000000e+00)
14              	bot_wall	(-1.00131219e-01 1.32647659e-18 0.00000000e+00)	(-1.00131219e-01 1.32647659e-18 0.00000000e+00)
14.5            	top_wall	(-1.00262463e-01 2.26371163e-22 0.00000000e+00)	(-1.00262463e-01 2.26371163e-22 0.00000000e+00)
14.5            	bot_wall	(-1.00262498e-01 1.42543335e-18 0.00000000e+00)	(-1.00262498e-01 1.42543335e-18 0.00000000e+00)
15              	top_wall	(-1.00402739e-01 2.19498792e-22 0.00000000e+00)	(-1.00402739e-01 2.19498792e-22 0.00000000e+00)
15              	bot_wall	(-1.00402773e-01 1.28340289e-18 0.00000000e+00)	(-1.00402773e-01 1.28340289e-18 0.00000000e+00)
15.5            	top_wall	(-1.00550730e-01 8.44872562e-22 0.00000000e+00)	(-1.00550730e-01 8.44872562e-22 0.00000000e+00)
15.5            	bot_wall	(-1.00550763e-01 1.16876937e-18 0.00000000e+00)	(-1.00550763e-01 1.16876937e-18 0.00000000e+00)
16              	top_wall	(-1.00705322e-01 -1.00063143e-21 0.00000000e+00)	(-1.00705322e-01 -1.00063143e-21 0.00000000e+00)
16              	bot_wall	(-1.00705353e-01 1.35737041e-18 0.00000000e+00)	(-1.00705353e-01 1.35737041e-18 0.00000000e+00)
16.5            	top_wall	(-1.00865376e-01 6.70486030e-22 0.00000000e+00)	(-1.00865376e-01 6.70486030e-22 0.00000000e+00)
16.5            	bot_wall	(-1.00865406e-01 1.22993569e-18 0.00000000e+00)	(-1.00865406e-01 1.22993569e-18 0.00000000e+00)
17              	top_wall	(-1.01029723e-01 1.44623226e-22 0.00000000e+00)	(-1.01029723e-01 1.44623226e-22 0.00000000e+00)
17              	bot_wall	(-1.01029752e-01 1.16501936e-18 0.00000000e+00)	(-1.01029752e-01 1.16501936e-18 0.00000000e+00)
17.5            	top_wall	(-1.01197700e-01 5.47230669e-22 0.00000000e+00)	(-1.01197700e-01 5.47230669e-22 0.00000000e+00)
17.5            	bot_wall	(-1.01197728e-01 1.47627572e-18 0.00000000e+00)	(-1.01197728e-01 1.47627572e-18 0.00000000e+00)
18              	top_wall	(-1.01368902e-01 6.00827934e-23 0.00000000e+00)	(-1.01368902e-01 6.00827934e-23 0.00000000e+00)
18              	bot_wall	(-1.01368930e-01 1.18877569e-18 0.00000000e+00)	(-1.01368930e-01 1.18877569e-18 0.00000000e+00)
18.5            	top_wall	(-1.01542046e-01 -5.09767732e-22 0.00000000e+00)	(-1.01542046e-01 -5.09767732e-22 0.00000000e+00)
18.5            	bot_wall	(-1.01542073e-01 1.30464955e-18 0.00000000e+00)	(-1.01542073e-01 1.30464955e-18 0.00000000e+00)
19              	top_wall	(-1.01716418e-01 2.89337996e-22 0.00000000e+00)	(-1.01716418e-01 2.89337996e-22 0.00000000e+00)
19              	bot_wall	(-1.01716444e-01 1.33871754e-18 0.00000000e+00)	(-1.01716444e-01 1.33871754e-18 0.00000000e+00)
19.5            	top_wall	(-1.01891109e-01 -1.64423903e-21 0.00000000e+00)	(-1.01891109e-01 -1.64423903e-21 0.00000000e+00)
19.5            	bot_wall	(-1.01891135e-01 1.59380795e-18 0.00000000e+00)	(-1.01891135e-01 1.59380795e-18 0.00000000e+00)
20              	top_wall	(-1.02065559e-01 -3.07217985e-22 0.00000000e+00)	(-1.02065559e-01 -3.07217985e-22 0.00000000e+00)
20              	bot_wall	(-1.02065585e-01 1.31765664e-18 0.00000000e+00)	(-1.02065585e-01 1.31765664e-18 0.00000000e+00)
20.5            	top_wall	(-1.02238842e-01 1.51925630e-21 0.00000000e+00)	(-1.02238842e-01 1.51925630e-21 0.00000000e+00)
20.5            	bot_wall	(-1.02238867e-01 1.45021703e-18 0.00000000e+00)	(-1.02238867e-01 1.45021703e-18 0.00000000e+00)
21              	top_wall	(-1.02410749e-01 3.10815986e-22 0.00000000e+00)	(-1.02410749e-01 3.10815986e-22 0.00000000e+00)
21              	bot_wall	(-1.02410774e-01 1.29263147e-18 0.00000000e+00)	(-1.02410774e-01 1.29263147e-18 0.00000000e+00)
21.5            	top_wall	(-1.02580812e-01 9.16069357e-22 0.00000000e+00)	(-1.02580812e-01 9.16069357e-22 0.00000000e+00)
21.5            	bot_wall	(-1.02580835e-01 1.15785632e-18 0.00000000e+00)	(-1.02580835e-01 1.15785632e-18 0.00000000e+00)
22              	top_wall	(-1.02748629e-01 3.01944568e-22 0.00000000e+00)	(-1.02748629e-01 3.01944568e-22 0.00000000e+00)
22              	bot_wall	(-1.02748652e-01 1.46821402e-18 0.00000000e+00)	(-1.02748652e-01 1.46821402e-18 0.00000000e+00)
22.5            	top_wall	(-1.02913863e-01 6.74528322e-22 0.00000000e+00)	(-1.02913863e-01 6.74528322e-22 0.00000000e+00)
22.5            	bot_wall	(-1.02913885e-01 1.13603780e-18 0.00000000e+00)	(-1.02913885e-01 1.13603780e-18 0.00000000e+00)
