/*--------------------------------*- C++ -*----------------------------------*\
| =========                 |                                                 |
| \\      /  F ield         | OpenFOAM: The Open Source CFD Toolbox           |
|  \\    /   O peration     | Version:  2312                                  |
|   \\  /    A nd           | Website:  www.openfoam.com                      |
|    \\/     M anipulation  |                                                 |
\*---------------------------------------------------------------------------*/
FoamFile
{
    version     2.0;
    format      ascii;
    arch        "LSB;label=32;scalar=64";
    class       volVectorField;
    location    "100";
    object      U;
}
// * * * * * * * * * * * * * * * * * * * * * * * * * * * * * * * * * * * * * //

dimensions      [0 1 -1 0 0 0 0];

internalField   nonuniform List<vector> 
1000
(
(0.218174 1.088e-16 0)
(0.653538 2.23194e-16 0)
(1.08792 2.18856e-16 0)
(1.52131 2.05899e-16 0)
(1.95371 2.04732e-16 0)
(2.38513 2.06059e-16 0)
(2.81556 2.06576e-16 0)
(3.245 2.06926e-16 0)
(3.67344 2.07459e-16 0)
(4.1009 2.07481e-16 0)
(4.52736 2.06841e-16 0)
(4.95282 2.05841e-16 0)
(5.37728 2.04875e-16 0)
(5.80075 2.03706e-16 0)
(6.22321 2.01972e-16 0)
(6.64467 2.00556e-16 0)
(7.06512 2.00096e-16 0)
(7.48457 2.00103e-16 0)
(7.903 2.00243e-16 0)
(8.32042 2.00433e-16 0)
(8.73682 2.00626e-16 0)
(9.15221 2.00804e-16 0)
(9.56657 2.00962e-16 0)
(9.97992 2.011e-16 0)
(10.3922 2.01222e-16 0)
(10.8035 2.01336e-16 0)
(11.2138 2.01445e-16 0)
(11.623 2.01555e-16 0)
(12.0311 2.01668e-16 0)
(12.4383 2.01788e-16 0)
(12.8444 2.01915e-16 0)
(13.2494 2.0205e-16 0)
(13.6534 2.02193e-16 0)
(14.0563 2.02345e-16 0)
(14.4581 2.02504e-16 0)
(14.8589 2.02671e-16 0)
(15.2587 2.02845e-16 0)
(15.6573 2.03026e-16 0)
(16.0549 2.03212e-16 0)
(16.4514 2.03404e-16 0)
(16.8468 2.03602e-16 0)
(17.2411 2.03804e-16 0)
(17.6343 2.04012e-16 0)
(18.0264 2.04223e-16 0)
(18.4174 2.04439e-16 0)
(18.8074 2.0466e-16 0)
(19.1961 2.04884e-16 0)
(19.5838 2.05112e-16 0)
(19.9704 2.05343e-16 0)
(20.3558 2.05579e-16 0)
(20.7401 2.05818e-16 0)
(21.1232 2.0606e-16 0)
(21.5052 2.06306e-16 0)
(21.8861 2.06556e-16 0)
(22.2658 2.06808e-16 0)
(22.6443 2.07064e-16 0)
(23.0217 2.07324e-16 0)
(23.3979 2.07587e-16 0)
(23.773 2.07853e-16 0)
(24.1468 2.08123e-16 0)
(24.5195 2.08396e-16 0)
(24.891 2.08672e-16 0)
(25.2613 2.08952e-16 0)
(25.6304 2.09235e-16 0)
(25.9982 2.09521e-16 0)
(26.3649 2.09811e-16 0)
(26.7303 2.10104e-16 0)
(27.0946 2.104e-16 0)
(27.4575 2.107e-16 0)
(27.8193 2.11003e-16 0)
(28.1798 2.11309e-16 0)
(28.5391 2.11618e-16 0)
(28.8971 2.1193e-16 0)
(29.2538 2.12245e-16 0)
(29.6093 2.12563e-16 0)
(29.9635 2.12884e-16 0)
(30.3164 2.13208e-16 0)
(30.6681 2.13533e-16 0)
(31.0184 2.13861e-16 0)
(31.3675 2.14192e-16 0)
(31.7153 2.14524e-16 0)
(32.0617 2.14857e-16 0)
(32.4069 2.15192e-16 0)
(32.7507 2.15528e-16 0)
(33.0932 2.15865e-16 0)
(33.4343 2.16202e-16 0)
(33.7742 2.16539e-16 0)
(34.1127 2.16876e-16 0)
(34.4498 2.17211e-16 0)
(34.7856 2.17545e-16 0)
(35.12 2.17878e-16 0)
(35.4531 2.18207e-16 0)
(35.7848 2.18534e-16 0)
(36.1151 2.18857e-16 0)
(36.444 2.19176e-16 0)
(36.7715 2.1949e-16 0)
(37.0977 2.19798e-16 0)
(37.4224 2.201e-16 0)
(37.7458 2.20394e-16 0)
(38.0677 2.20681e-16 0)
(38.3882 2.20959e-16 0)
(38.7073 2.21228e-16 0)
(39.0249 2.21487e-16 0)
(39.3412 2.21735e-16 0)
(39.656 2.21971e-16 0)
(39.9693 2.22195e-16 0)
(40.2812 2.22406e-16 0)
(40.5916 2.22604e-16 0)
(40.9006 2.22787e-16 0)
(41.2081 2.22955e-16 0)
(41.5141 2.23109e-16 0)
(41.8187 2.23246e-16 0)
(42.1218 2.23367e-16 0)
(42.4234 2.23471e-16 0)
(42.7235 2.23557e-16 0)
(43.0221 2.23625e-16 0)
(43.3192 2.23674e-16 0)
(43.6148 2.23703e-16 0)
(43.9089 2.23711e-16 0)
(44.2015 2.23699e-16 0)
(44.4925 2.23665e-16 0)
(44.7821 2.2361e-16 0)
(45.0701 2.23538e-16 0)
(45.3566 2.23451e-16 0)
(45.6415 2.23357e-16 0)
(45.925 2.23263e-16 0)
(46.2068 2.23179e-16 0)
(46.4872 2.23114e-16 0)
(46.7659 2.23071e-16 0)
(47.0431 2.23051e-16 0)
(47.3188 2.23058e-16 0)
(47.5929 2.23112e-16 0)
(47.8655 2.23294e-16 0)
(48.1364 2.23738e-16 0)
(48.4058 2.24709e-16 0)
(48.6737 2.26566e-16 0)
(48.9399 2.29762e-16 0)
(49.2046 2.34774e-16 0)
(49.4677 2.42767e-16 0)
(49.7292 2.42625e-16 0)
(49.9891 2.45629e-16 0)
(50.2474 2.51594e-16 0)
(50.5042 2.48728e-16 0)
(50.7593 2.47887e-16 0)
(51.0129 2.47668e-16 0)
(51.2648 2.47671e-16 0)
(51.5152 2.4763e-16 0)
(51.7639 2.47364e-16 0)
(52.0111 2.46864e-16 0)
(52.2566 2.46078e-16 0)
(52.5006 2.4505e-16 0)
(52.7429 2.43828e-16 0)
(52.9836 2.42448e-16 0)
(53.2228 2.40935e-16 0)
(53.4603 2.39305e-16 0)
(53.6962 2.37566e-16 0)
(53.9305 2.35721e-16 0)
(54.1631 2.3377e-16 0)
(54.3942 2.31716e-16 0)
(54.6236 2.29552e-16 0)
(54.8515 2.27283e-16 0)
(55.0777 2.24915e-16 0)
(55.3023 2.22467e-16 0)
(55.5253 2.19934e-16 0)
(55.7467 2.17376e-16 0)
(55.9665 2.14876e-16 0)
(56.1847 2.12432e-16 0)
(56.4012 2.09983e-16 0)
(56.6162 2.07374e-16 0)
(56.8296 2.03505e-16 0)
(57.0413 2.13471e-16 0)
(57.2514 2.02631e-16 0)
(57.46 1.91869e-16 0)
(57.6669 2.01902e-16 0)
(57.8722 1.97973e-16 0)
(58.076 1.95327e-16 0)
(58.2781 1.92849e-16 0)
(58.4787 1.90374e-16 0)
(58.6776 1.87842e-16 0)
(58.875 1.85254e-16 0)
(59.0708 1.82724e-16 0)
(59.2649 1.80268e-16 0)
(59.4576 1.77919e-16 0)
(59.6486 1.75682e-16 0)
(59.838 1.73551e-16 0)
(60.0259 1.71517e-16 0)
(60.2122 1.6959e-16 0)
(60.397 1.67754e-16 0)
(60.5802 1.66026e-16 0)
(60.7618 1.64394e-16 0)
(60.9419 1.62878e-16 0)
(61.1204 1.61445e-16 0)
(61.2973 1.601e-16 0)
(61.4728 1.58883e-16 0)
(61.6467 1.57765e-16 0)
(61.819 1.5678e-16 0)
(61.9898 1.55984e-16 0)
(62.1591 1.55486e-16 0)
(62.3269 1.55417e-16 0)
(62.4931 1.56006e-16 0)
(62.6579 1.57508e-16 0)
(62.8211 1.59799e-16 0)
(62.9829 1.63189e-16 0)
(63.1431 1.48664e-16 0)
(63.3018 1.39294e-16 0)
(63.4591 1.43467e-16 0)
(63.6149 1.40097e-16 0)
(63.7692 1.40724e-16 0)
(63.922 1.42392e-16 0)
(64.0734 1.43481e-16 0)
(64.2233 1.43687e-16 0)
(64.3717 1.43227e-16 0)
(64.5188 1.42429e-16 0)
(64.6643 1.41549e-16 0)
(64.8085 1.4073e-16 0)
(64.9512 1.40033e-16 0)
(65.0925 1.39469e-16 0)
(65.2324 1.39017e-16 0)
(65.3708 1.38651e-16 0)
(65.5079 1.38345e-16 0)
(65.6436 1.38085e-16 0)
(65.7779 1.37872e-16 0)
(65.9108 1.37686e-16 0)
(66.0423 1.37509e-16 0)
(66.1725 1.3733e-16 0)
(66.3013 1.37136e-16 0)
(66.4287 1.36921e-16 0)
(66.5548 1.36677e-16 0)
(66.6796 1.36401e-16 0)
(66.8031 1.36088e-16 0)
(66.9252 1.35737e-16 0)
(67.046 1.35346e-16 0)
(67.1655 1.34916e-16 0)
(67.2837 1.34446e-16 0)
(67.4006 1.33938e-16 0)
(67.5162 1.33394e-16 0)
(67.6306 1.32814e-16 0)
(67.7437 1.322e-16 0)
(67.8555 1.31555e-16 0)
(67.9661 1.30882e-16 0)
(68.0754 1.30181e-16 0)
(68.1835 1.29456e-16 0)
(68.2903 1.28709e-16 0)
(68.396 1.27942e-16 0)
(68.5004 1.27157e-16 0)
(68.6036 1.26356e-16 0)
(68.7057 1.2554e-16 0)
(68.8065 1.24711e-16 0)
(68.9062 1.23871e-16 0)
(69.0047 1.23021e-16 0)
(69.102 1.22161e-16 0)
(69.1982 1.21293e-16 0)
(69.2932 1.20418e-16 0)
(69.3871 1.19536e-16 0)
(69.4799 1.18649e-16 0)
(69.5716 1.17757e-16 0)
(69.6621 1.16859e-16 0)
(69.7516 1.15958e-16 0)
(69.8399 1.15054e-16 0)
(69.9272 1.14146e-16 0)
(70.0134 1.13235e-16 0)
(70.0985 1.12322e-16 0)
(70.1826 1.11407e-16 0)
(70.2656 1.10491e-16 0)
(70.3476 1.09573e-16 0)
(70.4285 1.08654e-16 0)
(70.5084 1.07735e-16 0)
(70.5873 1.06815e-16 0)
(70.6652 1.05895e-16 0)
(70.7421 1.04975e-16 0)
(70.8181 1.04055e-16 0)
(70.893 1.03137e-16 0)
(70.967 1.02219e-16 0)
(71.04 1.01302e-16 0)
(71.112 1.00386e-16 0)
(71.1831 9.94723e-17 0)
(71.2533 9.85601e-17 0)
(71.3225 9.76499e-17 0)
(71.3908 9.67419e-17 0)
(71.4582 9.58362e-17 0)
(71.5247 9.4933e-17 0)
(71.5903 9.40326e-17 0)
(71.655 9.3135e-17 0)
(71.7189 9.22405e-17 0)
(71.7819 9.13491e-17 0)
(71.844 9.04611e-17 0)
(71.9052 8.95766e-17 0)
(71.9657 8.86957e-17 0)
(72.0253 8.78186e-17 0)
(72.084 8.69453e-17 0)
(72.142 8.60761e-17 0)
(72.1991 8.5211e-17 0)
(72.2554 8.43502e-17 0)
(72.311 8.34938e-17 0)
(72.3657 8.26418e-17 0)
(72.4197 8.17943e-17 0)
(72.4729 8.09516e-17 0)
(72.5254 8.01136e-17 0)
(72.5771 7.92805e-17 0)
(72.628 7.84523e-17 0)
(72.6783 7.76292e-17 0)
(72.7278 7.68111e-17 0)
(72.7765 7.59983e-17 0)
(72.8246 7.51907e-17 0)
(72.872 7.43884e-17 0)
(72.9186 7.35915e-17 0)
(72.9646 7.28001e-17 0)
(73.0099 7.20142e-17 0)
(73.0545 7.12338e-17 0)
(73.0985 7.04591e-17 0)
(73.1418 6.969e-17 0)
(73.1845 6.89267e-17 0)
(73.2265 6.81691e-17 0)
(73.2678 6.74173e-17 0)
(73.3086 6.66714e-17 0)
(73.3487 6.59313e-17 0)
(73.3883 6.51972e-17 0)
(73.4272 6.44689e-17 0)
(73.4655 6.37467e-17 0)
(73.5032 6.30304e-17 0)
(73.5404 6.23201e-17 0)
(73.5769 6.16158e-17 0)
(73.6129 6.09175e-17 0)
(73.6484 6.02253e-17 0)
(73.6832 5.95392e-17 0)
(73.7176 5.88591e-17 0)
(73.7514 5.81851e-17 0)
(73.7846 5.75171e-17 0)
(73.8173 5.68552e-17 0)
(73.8496 5.61994e-17 0)
(73.8812 5.55496e-17 0)
(73.9124 5.49059e-17 0)
(73.9431 5.42682e-17 0)
(73.9733 5.36366e-17 0)
(74.003 5.30109e-17 0)
(74.0322 5.23913e-17 0)
(74.061 5.17777e-17 0)
(74.0893 5.11701e-17 0)
(74.1171 5.05684e-17 0)
(74.1444 4.99727e-17 0)
(74.1713 4.93829e-17 0)
(74.1978 4.87989e-17 0)
(74.2238 4.82209e-17 0)
(74.2494 4.76487e-17 0)
(74.2746 4.70822e-17 0)
(74.2993 4.65216e-17 0)
(74.3236 4.59668e-17 0)
(74.3476 4.54176e-17 0)
(74.3711 4.48742e-17 0)
(74.3942 4.43364e-17 0)
(74.4169 4.38042e-17 0)
(74.4392 4.32777e-17 0)
(74.4612 4.27567e-17 0)
(74.4828 4.22412e-17 0)
(74.504 4.17312e-17 0)
(74.5248 4.12266e-17 0)
(74.5453 4.07275e-17 0)
(74.5654 4.02338e-17 0)
(74.5852 3.97453e-17 0)
(74.6046 3.92622e-17 0)
(74.6237 3.87844e-17 0)
(74.6425 3.83117e-17 0)
(74.6609 3.78442e-17 0)
(74.679 3.73819e-17 0)
(74.6968 3.69247e-17 0)
(74.7143 3.64725e-17 0)
(74.7314 3.60253e-17 0)
(74.7483 3.55831e-17 0)
(74.7648 3.51459e-17 0)
(74.7811 3.47135e-17 0)
(74.797 3.4286e-17 0)
(74.8127 3.38633e-17 0)
(74.8281 3.34454e-17 0)
(74.8432 3.30322e-17 0)
(74.858 3.26236e-17 0)
(74.8726 3.22198e-17 0)
(74.8869 3.18205e-17 0)
(74.9009 3.14258e-17 0)
(74.9147 3.10356e-17 0)
(74.9282 3.06498e-17 0)
(74.9415 3.02686e-17 0)
(74.9545 2.98917e-17 0)
(74.9673 2.95192e-17 0)
(74.9798 2.91509e-17 0)
(74.9921 2.8787e-17 0)
(75.0042 2.84273e-17 0)
(75.016 2.80718e-17 0)
(75.0276 2.77204e-17 0)
(75.039 2.73732e-17 0)
(75.0502 2.703e-17 0)
(75.0612 2.66909e-17 0)
(75.0719 2.63558e-17 0)
(75.0825 2.60247e-17 0)
(75.0928 2.56975e-17 0)
(75.103 2.53742e-17 0)
(75.1129 2.50547e-17 0)
(75.1227 2.47391e-17 0)
(75.1323 2.44273e-17 0)
(75.1416 2.41194e-17 0)
(75.1508 2.38138e-17 0)
(75.1598 2.35119e-17 0)
(75.1687 2.32128e-17 0)
(75.1773 2.29172e-17 0)
(75.1858 2.26239e-17 0)
(75.1941 2.2334e-17 0)
(75.2023 2.20473e-17 0)
(75.2103 2.17634e-17 0)
(75.2181 2.1482e-17 0)
(75.2258 2.12043e-17 0)
(75.2333 2.09295e-17 0)
(75.2406 2.06582e-17 0)
(75.2478 2.03891e-17 0)
(75.2549 2.01235e-17 0)
(75.2618 1.98608e-17 0)
(75.2686 1.96015e-17 0)
(75.2752 1.93445e-17 0)
(75.2817 1.90909e-17 0)
(75.288 1.88404e-17 0)
(75.2942 1.85928e-17 0)
(75.3003 1.83484e-17 0)
(75.3063 1.81066e-17 0)
(75.3121 1.78678e-17 0)
(75.3178 1.76321e-17 0)
(75.3234 1.73994e-17 0)
(75.3289 1.71696e-17 0)
(75.3342 1.69429e-17 0)
(75.3394 1.67191e-17 0)
(75.3445 1.64983e-17 0)
(75.3495 1.62804e-17 0)
(75.3544 1.60655e-17 0)
(75.3592 1.58536e-17 0)
(75.3639 1.56445e-17 0)
(75.3684 1.54373e-17 0)
(75.3729 1.5232e-17 0)
(75.3772 1.50284e-17 0)
(75.3815 1.48267e-17 0)
(75.3856 1.46268e-17 0)
(75.3897 1.44287e-17 0)
(75.3937 1.42323e-17 0)
(75.3975 1.40378e-17 0)
(75.4013 1.38449e-17 0)
(75.405 1.36539e-17 0)
(75.4086 1.34646e-17 0)
(75.4121 1.32769e-17 0)
(75.4155 1.30911e-17 0)
(75.4189 1.29069e-17 0)
(75.4221 1.27244e-17 0)
(75.4253 1.25436e-17 0)
(75.4284 1.23644e-17 0)
(75.4314 1.2187e-17 0)
(75.4343 1.20111e-17 0)
(75.4372 1.18369e-17 0)
(75.44 1.16644e-17 0)
(75.4427 1.14934e-17 0)
(75.4453 1.1324e-17 0)
(75.4478 1.11563e-17 0)
(75.4503 1.09901e-17 0)
(75.4527 1.08254e-17 0)
(75.4551 1.06623e-17 0)
(75.4574 1.05012e-17 0)
(75.4596 1.03421e-17 0)
(75.4617 1.0185e-17 0)
(75.4638 1.00299e-17 0)
(75.4658 9.87677e-18 0)
(75.4677 9.72555e-18 0)
(75.4696 9.57624e-18 0)
(75.4714 9.42882e-18 0)
(75.4732 9.28329e-18 0)
(75.4749 9.13961e-18 0)
(75.4765 8.99777e-18 0)
(75.4781 8.85774e-18 0)
(75.4796 8.71951e-18 0)
(75.4811 8.58305e-18 0)
(75.4825 8.44835e-18 0)
(75.4838 8.31537e-18 0)
(75.4851 8.18411e-18 0)
(75.4863 8.05454e-18 0)
(75.4875 7.92664e-18 0)
(75.4886 7.80039e-18 0)
(75.4897 7.67577e-18 0)
(75.4907 7.55275e-18 0)
(75.4916 7.43132e-18 0)
(75.4925 7.31146e-18 0)
(75.4934 7.19314e-18 0)
(75.4942 7.07635e-18 0)
(75.495 6.96106e-18 0)
(75.4957 6.84725e-18 0)
(75.4963 6.73492e-18 0)
(75.4969 6.62402e-18 0)
(75.4974 6.51455e-18 0)
(75.4979 6.40649e-18 0)
(75.4984 6.29981e-18 0)
(75.4988 6.1945e-18 0)
(75.4991 6.09056e-18 0)
(75.4994 5.98796e-18 0)
(75.4997 5.88673e-18 0)
(75.4999 5.78687e-18 0)
(75.5 5.68833e-18 0)
(75.5001 5.59111e-18 0)
(75.5002 5.4952e-18 0)
(75.5002 5.40059e-18 0)
(75.5001 5.30726e-18 0)
(75.5 5.2152e-18 0)
(75.4999 5.12439e-18 0)
(75.4997 5.03485e-18 0)
(75.4994 4.94656e-18 0)
(75.4991 4.8595e-18 0)
(75.4988 4.77365e-18 0)
(75.4984 4.689e-18 0)
(75.4979 4.60552e-18 0)
(75.4974 4.5232e-18 0)
(75.4969 4.44202e-18 0)
(75.4963 4.362e-18 0)
(75.4957 4.28311e-18 0)
(75.495 4.20531e-18 0)
(75.4942 4.12873e-18 0)
(75.4934 4.0533e-18 0)
(75.4925 3.97903e-18 0)
(75.4916 3.90589e-18 0)
(75.4907 3.83389e-18 0)
(75.4897 3.763e-18 0)
(75.4886 3.6932e-18 0)
(75.4875 3.62449e-18 0)
(75.4863 3.55684e-18 0)
(75.4851 3.48998e-18 0)
(75.4838 3.42383e-18 0)
(75.4825 3.35866e-18 0)
(75.4811 3.29417e-18 0)
(75.4796 3.23052e-18 0)
(75.4781 3.16754e-18 0)
(75.4765 3.10556e-18 0)
(75.4749 3.04424e-18 0)
(75.4732 2.98376e-18 0)
(75.4714 2.92392e-18 0)
(75.4696 2.865e-18 0)
(75.4677 2.80693e-18 0)
(75.4658 2.74959e-18 0)
(75.4638 2.69295e-18 0)
(75.4617 2.6372e-18 0)
(75.4596 2.58232e-18 0)
(75.4574 2.52813e-18 0)
(75.4551 2.47461e-18 0)
(75.4527 2.42195e-18 0)
(75.4503 2.37023e-18 0)
(75.4478 2.31948e-18 0)
(75.4453 2.26968e-18 0)
(75.4427 2.22081e-18 0)
(75.44 2.17286e-18 0)
(75.4372 2.12582e-18 0)
(75.4343 2.07967e-18 0)
(75.4314 2.0344e-18 0)
(75.4284 1.98998e-18 0)
(75.4253 1.94642e-18 0)
(75.4221 1.9037e-18 0)
(75.4189 1.8618e-18 0)
(75.4155 1.82071e-18 0)
(75.4121 1.78042e-18 0)
(75.4086 1.74091e-18 0)
(75.405 1.70217e-18 0)
(75.4013 1.6642e-18 0)
(75.3975 1.62697e-18 0)
(75.3937 1.59048e-18 0)
(75.3897 1.55471e-18 0)
(75.3856 1.51965e-18 0)
(75.3815 1.48529e-18 0)
(75.3772 1.45162e-18 0)
(75.3729 1.41863e-18 0)
(75.3684 1.3863e-18 0)
(75.3639 1.35462e-18 0)
(75.3592 1.32359e-18 0)
(75.3544 1.29319e-18 0)
(75.3495 1.26341e-18 0)
(75.3445 1.23425e-18 0)
(75.3394 1.20568e-18 0)
(75.3342 1.1777e-18 0)
(75.3289 1.1503e-18 0)
(75.3234 1.12347e-18 0)
(75.3178 1.09719e-18 0)
(75.3121 1.07147e-18 0)
(75.3063 1.04628e-18 0)
(75.3003 1.02163e-18 0)
(75.2942 9.97493e-19 0)
(75.288 9.73867e-19 0)
(75.2817 9.50743e-19 0)
(75.2752 9.2811e-19 0)
(75.2686 9.0596e-19 0)
(75.2618 8.84285e-19 0)
(75.2549 8.63074e-19 0)
(75.2478 8.4232e-19 0)
(75.2406 8.22015e-19 0)
(75.2333 8.02149e-19 0)
(75.2258 7.82714e-19 0)
(75.2181 7.63703e-19 0)
(75.2103 7.45107e-19 0)
(75.2023 7.26918e-19 0)
(75.1941 7.09129e-19 0)
(75.1858 6.91732e-19 0)
(75.1773 6.74719e-19 0)
(75.1687 6.58083e-19 0)
(75.1598 6.41817e-19 0)
(75.1508 6.25913e-19 0)
(75.1416 6.10365e-19 0)
(75.1323 5.95165e-19 0)
(75.1227 5.80306e-19 0)
(75.1129 5.65783e-19 0)
(75.103 5.51587e-19 0)
(75.0928 5.37713e-19 0)
(75.0825 5.24155e-19 0)
(75.0719 5.10905e-19 0)
(75.0612 4.97958e-19 0)
(75.0502 4.85307e-19 0)
(75.039 4.72947e-19 0)
(75.0276 4.60872e-19 0)
(75.016 4.49076e-19 0)
(75.0042 4.37553e-19 0)
(74.9921 4.26297e-19 0)
(74.9798 4.15304e-19 0)
(74.9673 4.04567e-19 0)
(74.9545 3.94082e-19 0)
(74.9415 3.83843e-19 0)
(74.9282 3.73845e-19 0)
(74.9147 3.64083e-19 0)
(74.9009 3.54553e-19 0)
(74.8869 3.45248e-19 0)
(74.8726 3.36165e-19 0)
(74.858 3.27299e-19 0)
(74.8432 3.18645e-19 0)
(74.8281 3.10198e-19 0)
(74.8127 3.01955e-19 0)
(74.797 2.93911e-19 0)
(74.7811 2.86061e-19 0)
(74.7648 2.78402e-19 0)
(74.7483 2.70929e-19 0)
(74.7314 2.63639e-19 0)
(74.7143 2.56527e-19 0)
(74.6968 2.49589e-19 0)
(74.679 2.42822e-19 0)
(74.6609 2.36222e-19 0)
(74.6425 2.29785e-19 0)
(74.6237 2.23508e-19 0)
(74.6046 2.17386e-19 0)
(74.5852 2.11418e-19 0)
(74.5654 2.05599e-19 0)
(74.5453 1.99925e-19 0)
(74.5248 1.94395e-19 0)
(74.504 1.89003e-19 0)
(74.4828 1.83748e-19 0)
(74.4612 1.78626e-19 0)
(74.4392 1.73635e-19 0)
(74.4169 1.68771e-19 0)
(74.3942 1.64031e-19 0)
(74.3711 1.59412e-19 0)
(74.3476 1.54912e-19 0)
(74.3236 1.50528e-19 0)
(74.2993 1.46258e-19 0)
(74.2746 1.42098e-19 0)
(74.2494 1.38046e-19 0)
(74.2238 1.341e-19 0)
(74.1978 1.30257e-19 0)
(74.1713 1.26515e-19 0)
(74.1444 1.22871e-19 0)
(74.1171 1.19323e-19 0)
(74.0893 1.15868e-19 0)
(74.061 1.12506e-19 0)
(74.0322 1.09232e-19 0)
(74.003 1.06046e-19 0)
(73.9733 1.02945e-19 0)
(73.9431 9.99268e-20 0)
(73.9124 9.69898e-20 0)
(73.8812 9.41319e-20 0)
(73.8496 9.13512e-20 0)
(73.8173 8.86459e-20 0)
(73.7846 8.6014e-20 0)
(73.7514 8.34537e-20 0)
(73.7176 8.09634e-20 0)
(73.6832 7.85413e-20 0)
(73.6484 7.61857e-20 0)
(73.6129 7.38949e-20 0)
(73.5769 7.16674e-20 0)
(73.5404 6.95015e-20 0)
(73.5032 6.73958e-20 0)
(73.4655 6.53487e-20 0)
(73.4272 6.33587e-20 0)
(73.3883 6.14244e-20 0)
(73.3487 5.95444e-20 0)
(73.3086 5.77173e-20 0)
(73.2678 5.59418e-20 0)
(73.2265 5.42165e-20 0)
(73.1845 5.25401e-20 0)
(73.1418 5.09115e-20 0)
(73.0985 4.93293e-20 0)
(73.0545 4.77924e-20 0)
(73.0099 4.62995e-20 0)
(72.9646 4.48496e-20 0)
(72.9186 4.34415e-20 0)
(72.872 4.20742e-20 0)
(72.8246 4.07464e-20 0)
(72.7765 3.94573e-20 0)
(72.7278 3.82058e-20 0)
(72.6783 3.69908e-20 0)
(72.628 3.58115e-20 0)
(72.5771 3.46668e-20 0)
(72.5254 3.35559e-20 0)
(72.4729 3.24778e-20 0)
(72.4197 3.14316e-20 0)
(72.3657 3.04166e-20 0)
(72.311 2.94317e-20 0)
(72.2554 2.84763e-20 0)
(72.1991 2.75495e-20 0)
(72.142 2.66506e-20 0)
(72.084 2.57787e-20 0)
(72.0253 2.49331e-20 0)
(71.9657 2.41132e-20 0)
(71.9052 2.33181e-20 0)
(71.844 2.25473e-20 0)
(71.7819 2.17999e-20 0)
(71.7189 2.10755e-20 0)
(71.655 2.03733e-20 0)
(71.5903 1.96927e-20 0)
(71.5247 1.90331e-20 0)
(71.4582 1.83939e-20 0)
(71.3908 1.77745e-20 0)
(71.3225 1.71744e-20 0)
(71.2533 1.6593e-20 0)
(71.1831 1.60298e-20 0)
(71.112 1.54843e-20 0)
(71.04 1.49559e-20 0)
(70.967 1.44442e-20 0)
(70.893 1.39487e-20 0)
(70.8181 1.34689e-20 0)
(70.7421 1.30043e-20 0)
(70.6652 1.25546e-20 0)
(70.5873 1.21192e-20 0)
(70.5084 1.16978e-20 0)
(70.4285 1.12899e-20 0)
(70.3476 1.08951e-20 0)
(70.2656 1.05132e-20 0)
(70.1826 1.01436e-20 0)
(70.0985 9.78597e-21 0)
(70.0134 9.44003e-21 0)
(69.9272 9.10539e-21 0)
(69.8399 8.78172e-21 0)
(69.7516 8.46868e-21 0)
(69.6621 8.16596e-21 0)
(69.5716 7.87323e-21 0)
(69.4799 7.59021e-21 0)
(69.3871 7.31658e-21 0)
(69.2932 7.05207e-21 0)
(69.1982 6.7964e-21 0)
(69.102 6.5493e-21 0)
(69.0047 6.31049e-21 0)
(68.9062 6.07973e-21 0)
(68.8065 5.85677e-21 0)
(68.7057 5.64136e-21 0)
(68.6036 5.43327e-21 0)
(68.5004 5.23227e-21 0)
(68.396 5.03814e-21 0)
(68.2903 4.85067e-21 0)
(68.1835 4.66963e-21 0)
(68.0754 4.49484e-21 0)
(67.9661 4.32608e-21 0)
(67.8555 4.16318e-21 0)
(67.7437 4.00595e-21 0)
(67.6306 3.85419e-21 0)
(67.5162 3.70774e-21 0)
(67.4006 3.56644e-21 0)
(67.2837 3.4301e-21 0)
(67.1655 3.29857e-21 0)
(67.046 3.1717e-21 0)
(66.9252 3.04933e-21 0)
(66.8031 2.93131e-21 0)
(66.6796 2.81752e-21 0)
(66.5548 2.7078e-21 0)
(66.4287 2.60202e-21 0)
(66.3013 2.50005e-21 0)
(66.1725 2.40177e-21 0)
(66.0423 2.30705e-21 0)
(65.9108 2.21578e-21 0)
(65.7779 2.12784e-21 0)
(65.6436 2.04312e-21 0)
(65.5079 1.96151e-21 0)
(65.3708 1.8829e-21 0)
(65.2324 1.8072e-21 0)
(65.0925 1.73431e-21 0)
(64.9512 1.66413e-21 0)
(64.8085 1.59657e-21 0)
(64.6643 1.53153e-21 0)
(64.5188 1.46894e-21 0)
(64.3717 1.40871e-21 0)
(64.2233 1.35076e-21 0)
(64.0734 1.295e-21 0)
(63.922 1.24137e-21 0)
(63.7692 1.18979e-21 0)
(63.6149 1.14018e-21 0)
(63.4591 1.09248e-21 0)
(63.3018 1.04663e-21 0)
(63.1431 1.00255e-21 0)
(62.9829 9.6018e-22 0)
(62.8211 9.19465e-22 0)
(62.6579 8.80345e-22 0)
(62.4931 8.42761e-22 0)
(62.3269 8.0666e-22 0)
(62.1591 7.71987e-22 0)
(61.9898 7.38693e-22 0)
(61.819 7.06725e-22 0)
(61.6467 6.76038e-22 0)
(61.4728 6.46583e-22 0)
(61.2973 6.18317e-22 0)
(61.1204 5.91195e-22 0)
(60.9419 5.65176e-22 0)
(60.7618 5.40218e-22 0)
(60.5802 5.16284e-22 0)
(60.397 4.93333e-22 0)
(60.2122 4.71331e-22 0)
(60.0259 4.50242e-22 0)
(59.838 4.30031e-22 0)
(59.6486 4.10665e-22 0)
(59.4576 3.92112e-22 0)
(59.2649 3.74342e-22 0)
(59.0708 3.57325e-22 0)
(58.875 3.41032e-22 0)
(58.6776 3.25435e-22 0)
(58.4787 3.10508e-22 0)
(58.2781 2.96224e-22 0)
(58.076 2.82559e-22 0)
(57.8722 2.69489e-22 0)
(57.6669 2.5699e-22 0)
(57.46 2.4504e-22 0)
(57.2514 2.33617e-22 0)
(57.0413 2.22701e-22 0)
(56.8296 2.12271e-22 0)
(56.6162 2.02308e-22 0)
(56.4012 1.92794e-22 0)
(56.1847 1.8371e-22 0)
(55.9665 1.75039e-22 0)
(55.7467 1.66764e-22 0)
(55.5253 1.58869e-22 0)
(55.3023 1.51339e-22 0)
(55.0777 1.44158e-22 0)
(54.8515 1.37312e-22 0)
(54.6236 1.30788e-22 0)
(54.3942 1.24571e-22 0)
(54.1631 1.18649e-22 0)
(53.9305 1.1301e-22 0)
(53.6962 1.07642e-22 0)
(53.4603 1.02533e-22 0)
(53.2228 9.7671e-23 0)
(52.9836 9.30472e-23 0)
(52.7429 8.86503e-23 0)
(52.5006 8.44709e-23 0)
(52.2566 8.04991e-23 0)
(52.0111 7.67262e-23 0)
(51.7639 7.31432e-23 0)
(51.5152 6.97419e-23 0)
(51.2648 6.65137e-23 0)
(51.0129 6.34514e-23 0)
(50.7593 6.05471e-23 0)
(50.5042 5.7794e-23 0)
(50.2474 5.51847e-23 0)
(49.9891 5.27131e-23 0)
(49.7292 5.03724e-23 0)
(49.4677 4.8157e-23 0)
(49.2046 4.60603e-23 0)
(48.9399 4.40774e-23 0)
(48.6737 4.22024e-23 0)
(48.4058 4.04305e-23 0)
(48.1364 3.87562e-23 0)
(47.8655 3.71754e-23 0)
(47.5929 3.56829e-23 0)
(47.3188 3.4275e-23 0)
(47.0431 3.29467e-23 0)
(46.7659 3.16946e-23 0)
(46.4872 3.05145e-23 0)
(46.2068 2.9403e-23 0)
(45.925 2.83562e-23 0)
(45.6415 2.73711e-23 0)
(45.3566 2.64441e-23 0)
(45.0701 2.55726e-23 0)
(44.7821 2.4753e-23 0)
(44.4925 2.39829e-23 0)
(44.2015 2.32594e-23 0)
(43.9089 2.25802e-23 0)
(43.6148 2.19422e-23 0)
(43.3192 2.13438e-23 0)
(43.0221 2.07822e-23 0)
(42.7235 2.02557e-23 0)
(42.4234 1.97616e-23 0)
(42.1218 1.92985e-23 0)
(41.8187 1.88642e-23 0)
(41.5141 1.84573e-23 0)
(41.2081 1.80756e-23 0)
(40.9006 1.77179e-23 0)
(40.5916 1.73824e-23 0)
(40.2812 1.70679e-23 0)
(39.9693 1.67725e-23 0)
(39.656 1.64954e-23 0)
(39.3412 1.62351e-23 0)
(39.0249 1.59906e-23 0)
(38.7073 1.57603e-23 0)
(38.3882 1.55436e-23 0)
(38.0677 1.53392e-23 0)
(37.7458 1.51464e-23 0)
(37.4224 1.49638e-23 0)
(37.0977 1.47911e-23 0)
(36.7715 1.4627e-23 0)
(36.444 1.44711e-23 0)
(36.1151 1.43223e-23 0)
(35.7848 1.41802e-23 0)
(35.4531 1.4044e-23 0)
(35.12 1.39132e-23 0)
(34.7856 1.37869e-23 0)
(34.4498 1.3665e-23 0)
(34.1127 1.35465e-23 0)
(33.7742 1.34315e-23 0)
(33.4343 1.33189e-23 0)
(33.0932 1.32088e-23 0)
(32.7507 1.31005e-23 0)
(32.4069 1.29939e-23 0)
(32.0617 1.28882e-23 0)
(31.7153 1.27835e-23 0)
(31.3675 1.26793e-23 0)
(31.0184 1.25755e-23 0)
(30.6681 1.24715e-23 0)
(30.3164 1.23674e-23 0)
(29.9635 1.22628e-23 0)
(29.6093 1.21577e-23 0)
(29.2538 1.20515e-23 0)
(28.8971 1.19444e-23 0)
(28.5391 1.18361e-23 0)
(28.1798 1.17267e-23 0)
(27.8193 1.16156e-23 0)
(27.4575 1.15031e-23 0)
(27.0946 1.13889e-23 0)
(26.7303 1.12732e-23 0)
(26.3649 1.11554e-23 0)
(25.9982 1.10358e-23 0)
(25.6304 1.09142e-23 0)
(25.2613 1.07908e-23 0)
(24.891 1.06652e-23 0)
(24.5195 1.05376e-23 0)
(24.1468 1.04079e-23 0)
(23.773 1.02762e-23 0)
(23.3979 1.01422e-23 0)
(23.0217 1.00062e-23 0)
(22.6443 9.86799e-24 0)
(22.2658 9.72782e-24 0)
(21.8861 9.58535e-24 0)
(21.5052 9.44092e-24 0)
(21.1232 9.29436e-24 0)
(20.7401 9.14588e-24 0)
(20.3558 8.99518e-24 0)
(19.9704 8.84259e-24 0)
(19.5838 8.68798e-24 0)
(19.1961 8.53156e-24 0)
(18.8074 8.37309e-24 0)
(18.4174 8.21287e-24 0)
(18.0264 8.05081e-24 0)
(17.6343 7.88709e-24 0)
(17.2411 7.72149e-24 0)
(16.8468 7.55431e-24 0)
(16.4514 7.38546e-24 0)
(16.0549 7.21514e-24 0)
(15.6573 7.04317e-24 0)
(15.2587 6.86982e-24 0)
(14.8589 6.69502e-24 0)
(14.4581 6.51898e-24 0)
(14.0563 6.34154e-24 0)
(13.6534 6.16295e-24 0)
(13.2494 5.98318e-24 0)
(12.8444 5.8024e-24 0)
(12.4383 5.6205e-24 0)
(12.0311 5.43769e-24 0)
(11.623 5.25394e-24 0)
(11.2138 5.06938e-24 0)
(10.8035 4.8839e-24 0)
(10.3922 4.69767e-24 0)
(9.97991 4.51069e-24 0)
(9.56657 4.32304e-24 0)
(9.15221 4.13467e-24 0)
(8.73682 3.94572e-24 0)
(8.32042 3.75621e-24 0)
(7.903 3.56622e-24 0)
(7.48457 3.37571e-24 0)
(7.06512 3.18485e-24 0)
(6.64467 2.99366e-24 0)
(6.22321 2.80231e-24 0)
(5.80075 2.61086e-24 0)
(5.37728 2.41936e-24 0)
(4.95282 2.22782e-24 0)
(4.52736 2.03619e-24 0)
(4.1009 1.84439e-24 0)
(3.67344 1.65243e-24 0)
(3.245 1.46035e-24 0)
(2.81556 1.26807e-24 0)
(2.38513 1.07555e-24 0)
(1.95371 8.82505e-25 0)
(1.52131 6.8878e-25 0)
(1.08792 4.94199e-25 0)
(0.653538 2.97993e-25 0)
(0.218174 9.97472e-26 0)
)
;

boundaryField
{
    top_wall
    {
        type            noSlip;
    }
    inlet
    {
        type            cyclic;
    }
    bot_wall
    {
        type            noSlip;
    }
    outlet
    {
        type            cyclic;
    }
    frontAndBack
    {
        type            empty;
    }
}


// ************************************************************************* //
