/*--------------------------------*- C++ -*----------------------------------*\
| =========                 |                                                 |
| \\      /  F ield         | OpenFOAM: The Open Source CFD Toolbox           |
|  \\    /   O peration     | Version:  2312                                  |
|   \\  /    A nd           | Website:  www.openfoam.com                      |
|    \\/     M anipulation  |                                                 |
\*---------------------------------------------------------------------------*/
FoamFile
{
    version     2.0;
    format      ascii;
    arch        "LSB;label=32;scalar=64";
    class       volScalarField;
    location    "24.93";
    object      k;
}
// * * * * * * * * * * * * * * * * * * * * * * * * * * * * * * * * * * * * * //

dimensions      [0 2 -2 0 0 0 0];

internalField   nonuniform List<scalar> 
1000
(
0.109972
0.115227
0.143404
0.171767
0.194661
0.212412
0.226256
0.237228
0.246075
0.253316
0.259323
0.264361
0.268626
0.272265
0.275389
0.278086
0.280424
0.282459
0.284233
0.285784
0.28714
0.288326
0.289364
0.290271
0.291061
0.291748
0.292342
0.292853
0.293289
0.293658
0.293965
0.294216
0.294417
0.294571
0.294682
0.294755
0.294792
0.294795
0.294769
0.294714
0.294633
0.294527
0.294399
0.29425
0.294082
0.293895
0.293691
0.293471
0.293237
0.292988
0.292726
0.292452
0.292166
0.291869
0.291562
0.291245
0.290919
0.290584
0.290241
0.28989
0.289532
0.289167
0.288795
0.288417
0.288033
0.287643
0.287248
0.286848
0.286443
0.286033
0.285619
0.285201
0.284778
0.284352
0.283922
0.283488
0.283051
0.282611
0.282167
0.281721
0.281271
0.280819
0.280365
0.279908
0.279448
0.278986
0.278522
0.278055
0.277587
0.277116
0.276644
0.276169
0.275693
0.275215
0.274735
0.274254
0.273771
0.273286
0.2728
0.272313
0.271824
0.271334
0.270842
0.27035
0.269855
0.26936
0.268864
0.268366
0.267867
0.267367
0.266866
0.266364
0.265861
0.265357
0.264852
0.264346
0.263839
0.263331
0.262822
0.262312
0.261802
0.26129
0.260778
0.260265
0.259751
0.259236
0.25872
0.258204
0.257687
0.257169
0.256651
0.256131
0.255611
0.25509
0.254569
0.254047
0.253524
0.253
0.252476
0.251951
0.251425
0.250899
0.250372
0.249844
0.249316
0.248787
0.248258
0.247727
0.247197
0.246665
0.246133
0.2456
0.245067
0.244533
0.243999
0.243464
0.242928
0.242392
0.241855
0.241317
0.240779
0.24024
0.239701
0.239161
0.238621
0.23808
0.237538
0.236996
0.236453
0.23591
0.235366
0.234821
0.234276
0.233731
0.233184
0.232638
0.23209
0.231543
0.230994
0.230445
0.229896
0.229345
0.228795
0.228243
0.227692
0.227139
0.226586
0.226033
0.225479
0.224925
0.224369
0.223814
0.223258
0.222701
0.222144
0.221586
0.221028
0.220469
0.219909
0.219349
0.218789
0.218228
0.217666
0.217104
0.216542
0.215979
0.215415
0.214851
0.214286
0.213721
0.213155
0.212589
0.212022
0.211455
0.210887
0.210319
0.20975
0.209181
0.208611
0.208041
0.207471
0.206899
0.206328
0.205755
0.205183
0.20461
0.204036
0.203462
0.202887
0.202312
0.201737
0.201161
0.200584
0.200008
0.19943
0.198852
0.198274
0.197696
0.197116
0.196537
0.195957
0.195377
0.194796
0.194215
0.193633
0.193051
0.192469
0.191886
0.191303
0.190719
0.190135
0.189551
0.188966
0.188381
0.187796
0.18721
0.186624
0.186037
0.18545
0.184863
0.184276
0.183688
0.1831
0.182512
0.181923
0.181334
0.180745
0.180155
0.179565
0.178975
0.178385
0.177795
0.177204
0.176613
0.176021
0.17543
0.174838
0.174247
0.173655
0.173062
0.17247
0.171877
0.171285
0.170692
0.170099
0.169506
0.168913
0.16832
0.167726
0.167133
0.166539
0.165946
0.165352
0.164758
0.164165
0.163571
0.162978
0.162384
0.16179
0.161197
0.160603
0.16001
0.159416
0.158823
0.15823
0.157637
0.157044
0.156451
0.155859
0.155267
0.154674
0.154082
0.153491
0.152899
0.152308
0.151717
0.151126
0.150536
0.149946
0.149356
0.148767
0.148178
0.14759
0.147002
0.146414
0.145827
0.14524
0.144654
0.144068
0.143483
0.142899
0.142315
0.141731
0.141149
0.140566
0.139985
0.139404
0.138824
0.138245
0.137667
0.137089
0.136512
0.135936
0.135361
0.134786
0.134213
0.13364
0.133069
0.132498
0.131929
0.13136
0.130793
0.130227
0.129662
0.129098
0.128535
0.127973
0.127413
0.126854
0.126296
0.12574
0.125185
0.124631
0.124079
0.123529
0.12298
0.122432
0.121886
0.121341
0.120799
0.120257
0.119718
0.11918
0.118644
0.11811
0.117578
0.117048
0.116519
0.115993
0.115468
0.114946
0.114426
0.113907
0.113391
0.112877
0.112366
0.111857
0.111349
0.110845
0.110343
0.109843
0.109345
0.10885
0.108358
0.107869
0.107382
0.106897
0.106416
0.105937
0.105461
0.104988
0.104517
0.10405
0.103586
0.103125
0.102667
0.102211
0.10176
0.101311
0.100866
0.100424
0.0999848
0.0995495
0.0991176
0.0986891
0.0982642
0.0978429
0.0974252
0.0970112
0.0966008
0.0961942
0.0957914
0.0953925
0.0949974
0.0946062
0.094219
0.0938358
0.0934567
0.0930816
0.0927107
0.092344
0.0919814
0.0916232
0.0912692
0.0909196
0.0905744
0.0902336
0.0898973
0.0895654
0.0892381
0.0889154
0.0885973
0.0882839
0.0879751
0.0876711
0.0873718
0.0870774
0.0867878
0.086503
0.0862231
0.0859482
0.0856783
0.0854133
0.0851534
0.0848986
0.0846488
0.0844042
0.0841647
0.0839304
0.0837013
0.0834774
0.0832588
0.0830455
0.0828375
0.0826348
0.0824375
0.0822456
0.082059
0.0818779
0.0817023
0.0815321
0.0813674
0.0812082
0.0810546
0.0809065
0.0807639
0.0806269
0.0804955
0.0803698
0.0802496
0.0801351
0.0800262
0.079923
0.0798254
0.0797336
0.0796474
0.0795669
0.0794921
0.0794231
0.0793598
0.0793022
0.0792504
0.0792043
0.0791639
0.0791293
0.0791005
0.0790774
0.0790601
0.0790486
0.0790428
0.0790428
0.0790486
0.0790601
0.0790774
0.0791005
0.0791293
0.0791639
0.0792043
0.0792504
0.0793022
0.0793598
0.0794231
0.0794922
0.0795669
0.0796474
0.0797336
0.0798254
0.079923
0.0800262
0.0801351
0.0802496
0.0803698
0.0804956
0.080627
0.0807639
0.0809065
0.0810546
0.0812083
0.0813675
0.0815322
0.0817023
0.081878
0.0820591
0.0822456
0.0824375
0.0826348
0.0828375
0.0830455
0.0832588
0.0834774
0.0837013
0.0839304
0.0841647
0.0844042
0.0846488
0.0848986
0.0851535
0.0854134
0.0856783
0.0859483
0.0862232
0.086503
0.0867878
0.0870774
0.0873719
0.0876711
0.0879752
0.0882839
0.0885974
0.0889155
0.0892382
0.0895655
0.0898973
0.0902337
0.0905745
0.0909197
0.0912693
0.0916232
0.0919815
0.092344
0.0927108
0.0930817
0.0934567
0.0938359
0.0942191
0.0946063
0.0949974
0.0953925
0.0957915
0.0961943
0.0966009
0.0970112
0.0974253
0.097843
0.0982643
0.0986892
0.0991176
0.0995495
0.0999849
0.100424
0.100866
0.101311
0.10176
0.102212
0.102667
0.103125
0.103586
0.10405
0.104518
0.104988
0.105461
0.105937
0.106416
0.106897
0.107382
0.107869
0.108358
0.108851
0.109345
0.109843
0.110343
0.110845
0.11135
0.111857
0.112366
0.112878
0.113391
0.113907
0.114426
0.114946
0.115468
0.115993
0.116519
0.117048
0.117578
0.11811
0.118644
0.11918
0.119718
0.120257
0.120799
0.121341
0.121886
0.122432
0.12298
0.123529
0.124079
0.124632
0.125185
0.12574
0.126297
0.126854
0.127413
0.127974
0.128535
0.129098
0.129662
0.130227
0.130793
0.131361
0.131929
0.132498
0.133069
0.13364
0.134213
0.134786
0.135361
0.135936
0.136512
0.137089
0.137667
0.138245
0.138824
0.139404
0.139985
0.140567
0.141149
0.141731
0.142315
0.142899
0.143483
0.144068
0.144654
0.14524
0.145827
0.146414
0.147002
0.14759
0.148178
0.148767
0.149357
0.149946
0.150536
0.151126
0.151717
0.152308
0.152899
0.153491
0.154082
0.154674
0.155267
0.155859
0.156452
0.157044
0.157637
0.15823
0.158823
0.159417
0.16001
0.160603
0.161197
0.16179
0.162384
0.162978
0.163571
0.164165
0.164759
0.165352
0.165946
0.166539
0.167133
0.167726
0.16832
0.168913
0.169506
0.170099
0.170692
0.171285
0.171878
0.17247
0.173062
0.173655
0.174247
0.174838
0.17543
0.176022
0.176613
0.177204
0.177795
0.178385
0.178975
0.179565
0.180155
0.180745
0.181334
0.181923
0.182512
0.1831
0.183688
0.184276
0.184863
0.18545
0.186037
0.186624
0.18721
0.187796
0.188381
0.188966
0.189551
0.190135
0.190719
0.191303
0.191886
0.192469
0.193051
0.193633
0.194215
0.194796
0.195377
0.195957
0.196537
0.197117
0.197696
0.198274
0.198852
0.19943
0.200008
0.200584
0.201161
0.201737
0.202312
0.202887
0.203462
0.204036
0.20461
0.205183
0.205755
0.206328
0.206899
0.207471
0.208041
0.208612
0.209181
0.20975
0.210319
0.210887
0.211455
0.212022
0.212589
0.213155
0.213721
0.214286
0.214851
0.215415
0.215979
0.216542
0.217104
0.217666
0.218228
0.218789
0.219349
0.219909
0.220469
0.221028
0.221586
0.222144
0.222701
0.223258
0.223814
0.224369
0.224925
0.225479
0.226033
0.226587
0.227139
0.227692
0.228244
0.228795
0.229345
0.229896
0.230445
0.230994
0.231543
0.23209
0.232638
0.233184
0.233731
0.234276
0.234821
0.235366
0.23591
0.236453
0.236996
0.237538
0.23808
0.238621
0.239161
0.239701
0.24024
0.240779
0.241317
0.241855
0.242392
0.242928
0.243464
0.243999
0.244533
0.245067
0.2456
0.246133
0.246665
0.247197
0.247727
0.248258
0.248787
0.249316
0.249844
0.250372
0.250899
0.251425
0.251951
0.252476
0.253
0.253524
0.254047
0.254569
0.25509
0.255611
0.256131
0.256651
0.257169
0.257687
0.258204
0.25872
0.259236
0.259751
0.260265
0.260778
0.26129
0.261802
0.262312
0.262822
0.263331
0.263839
0.264346
0.264852
0.265357
0.265861
0.266364
0.266866
0.267367
0.267867
0.268366
0.268864
0.26936
0.269855
0.27035
0.270842
0.271334
0.271824
0.272313
0.2728
0.273286
0.273771
0.274254
0.274735
0.275215
0.275693
0.276169
0.276644
0.277116
0.277587
0.278055
0.278522
0.278986
0.279448
0.279907
0.280365
0.280819
0.281271
0.281721
0.282167
0.28261
0.283051
0.283488
0.283922
0.284352
0.284778
0.285201
0.285619
0.286033
0.286443
0.286848
0.287248
0.287643
0.288033
0.288417
0.288795
0.289167
0.289532
0.28989
0.290241
0.290584
0.290919
0.291245
0.291562
0.291869
0.292166
0.292452
0.292726
0.292988
0.293237
0.293471
0.293691
0.293895
0.294082
0.29425
0.294399
0.294527
0.294633
0.294714
0.294769
0.294795
0.294792
0.294755
0.294682
0.294571
0.294416
0.294216
0.293965
0.293658
0.293289
0.292853
0.292342
0.291748
0.291061
0.290271
0.289364
0.288326
0.28714
0.285783
0.284233
0.282459
0.280424
0.278086
0.275389
0.272265
0.268626
0.264361
0.259323
0.253316
0.246075
0.237228
0.226256
0.212412
0.194661
0.171767
0.143404
0.115227
0.109972
)
;

boundaryField
{
    top_wall
    {
        type            kLowReWallFunction;
        value           uniform 0.000389543;
    }
    inlet
    {
        type            cyclic;
    }
    bot_wall
    {
        type            kLowReWallFunction;
        value           uniform 0.000389543;
    }
    outlet
    {
        type            cyclic;
    }
    frontAndBack
    {
        type            empty;
    }
}


// ************************************************************************* //
