/*--------------------------------*- C++ -*----------------------------------*\
| =========                 |                                                 |
| \\      /  F ield         | OpenFOAM: The Open Source CFD Toolbox           |
|  \\    /   O peration     | Version:  2312                                  |
|   \\  /    A nd           | Website:  www.openfoam.com                      |
|    \\/     M anipulation  |                                                 |
\*---------------------------------------------------------------------------*/
FoamFile
{
    version     2.0;
    format      ascii;
    arch        "LSB;label=32;scalar=64";
    class       volScalarField;
    location    "24.93";
    object      nut;
}
// * * * * * * * * * * * * * * * * * * * * * * * * * * * * * * * * * * * * * //

dimensions      [0 2 -1 0 0 0 0];

internalField   nonuniform List<scalar> 
1000
(
1.86185e-06
3.81749e-06
8.19797e-06
1.42965e-05
2.1154e-05
2.82641e-05
3.54154e-05
4.25226e-05
4.95516e-05
5.64902e-05
6.33358e-05
7.00897e-05
7.67549e-05
8.33353e-05
8.98345e-05
9.62563e-05
0.000102604
0.000108881
0.000115091
0.000121235
0.000127316
0.000133337
0.0001393
0.000145206
0.000151057
0.000156854
0.000162599
0.000168294
0.00017394
0.000179537
0.000185086
0.00019059
0.000196048
0.000201461
0.000206831
0.000212158
0.000217443
0.000222686
0.000227888
0.00023305
0.000238172
0.000243255
0.000248299
0.000253305
0.000258273
0.000263204
0.000268098
0.000272956
0.000277777
0.000282562
0.000287312
0.000292027
0.000296708
0.000301353
0.000305965
0.000310543
0.000315087
0.000319598
0.000324076
0.000328521
0.000332934
0.000337314
0.000341662
0.000345979
0.000350263
0.000354517
0.000358739
0.00036293
0.00036709
0.000371219
0.000375318
0.000379387
0.000383426
0.000387434
0.000391413
0.000395362
0.000399281
0.000403172
0.000407032
0.000410864
0.000414667
0.000418442
0.000422187
0.000425904
0.000429593
0.000433253
0.000436885
0.00044049
0.000444066
0.000447615
0.000451135
0.000454629
0.000458095
0.000461533
0.000464945
0.000468329
0.000471686
0.000475017
0.00047832
0.000481597
0.000484848
0.000488072
0.000491269
0.00049444
0.000497585
0.000500704
0.000503797
0.000506864
0.000509905
0.000512921
0.000515911
0.000518875
0.000521814
0.000524727
0.000527615
0.000530478
0.000533316
0.000536129
0.000538916
0.000541679
0.000544417
0.000547131
0.00054982
0.000552484
0.000555124
0.00055774
0.000560331
0.000562898
0.000565441
0.00056796
0.000570454
0.000572925
0.000575373
0.000577796
0.000580196
0.000582572
0.000584925
0.000587254
0.00058956
0.000591842
0.000594102
0.000596338
0.000598551
0.000600742
0.000602909
0.000605054
0.000607176
0.000609275
0.000611351
0.000613405
0.000615437
0.000617446
0.000619433
0.000621398
0.00062334
0.000625261
0.000627159
0.000629036
0.00063089
0.000632723
0.000634535
0.000636324
0.000638092
0.000639839
0.000641564
0.000643267
0.00064495
0.000646611
0.000648251
0.00064987
0.000651469
0.000653046
0.000654602
0.000656138
0.000657653
0.000659147
0.000660621
0.000662074
0.000663507
0.00066492
0.000666313
0.000667685
0.000669037
0.000670369
0.000671681
0.000672974
0.000674246
0.000675499
0.000676732
0.000677946
0.00067914
0.000680315
0.00068147
0.000682606
0.000683723
0.00068482
0.000685899
0.000686959
0.000687999
0.000689021
0.000690024
0.000691009
0.000691975
0.000692922
0.000693851
0.000694761
0.000695653
0.000696527
0.000697383
0.000698221
0.000699041
0.000699842
0.000700626
0.000701392
0.000702141
0.000702872
0.000703585
0.000704281
0.000704959
0.00070562
0.000706264
0.000706891
0.0007075
0.000708093
0.000708669
0.000709228
0.00070977
0.000710295
0.000710804
0.000711296
0.000711772
0.000712232
0.000712675
0.000713102
0.000713513
0.000713907
0.000714286
0.000714649
0.000714996
0.000715328
0.000715644
0.000715944
0.000716229
0.000716498
0.000716752
0.000716991
0.000717215
0.000717423
0.000717617
0.000717796
0.00071796
0.000718109
0.000718244
0.000718364
0.00071847
0.000718561
0.000718638
0.000718701
0.00071875
0.000718784
0.000718805
0.000718812
0.000718805
0.000718785
0.000718751
0.000718703
0.000718642
0.000718568
0.000718481
0.000718381
0.000718267
0.000718141
0.000718002
0.00071785
0.000717685
0.000717508
0.000717319
0.000717117
0.000716903
0.000716676
0.000716438
0.000716188
0.000715926
0.000715652
0.000715367
0.00071507
0.000714761
0.000714442
0.000714111
0.000713769
0.000713416
0.000713052
0.000712677
0.000712291
0.000711895
0.000711489
0.000711072
0.000710645
0.000710208
0.000709761
0.000709303
0.000708836
0.00070836
0.000707874
0.000707378
0.000706873
0.000706359
0.000705836
0.000705304
0.000704763
0.000704213
0.000703654
0.000703088
0.000702513
0.000701929
0.000701338
0.000700738
0.000700131
0.000699516
0.000698894
0.000698264
0.000697627
0.000696982
0.000696331
0.000695672
0.000695007
0.000694336
0.000693658
0.000692973
0.000692283
0.000691586
0.000690883
0.000690175
0.000689461
0.000688742
0.000688017
0.000687288
0.000686553
0.000685813
0.000685069
0.00068432
0.000683567
0.00068281
0.000682049
0.000681283
0.000680514
0.000679742
0.000678966
0.000678187
0.000677405
0.000676619
0.000675832
0.000675041
0.000674249
0.000673454
0.000672657
0.000671858
0.000671057
0.000670255
0.000669452
0.000668648
0.000667842
0.000667036
0.000666229
0.000665422
0.000664615
0.000663807
0.000663
0.000662193
0.000661386
0.000660581
0.000659776
0.000658972
0.000658169
0.000657368
0.000656569
0.000655771
0.000654976
0.000654182
0.000653391
0.000652603
0.000651817
0.000651035
0.000650256
0.000649479
0.000648707
0.000647938
0.000647173
0.000646413
0.000645656
0.000644904
0.000644157
0.000643415
0.000642678
0.000641945
0.000641219
0.000640498
0.000639782
0.000639073
0.000638369
0.000637672
0.000636982
0.000636297
0.00063562
0.00063495
0.000634287
0.00063363
0.000632982
0.000632341
0.000631707
0.000631082
0.000630464
0.000629854
0.000629253
0.00062866
0.000628075
0.000627499
0.000626932
0.000626373
0.000625823
0.000625283
0.000624751
0.000624228
0.000623715
0.000623211
0.000622716
0.000622231
0.000621755
0.000621289
0.000620833
0.000620386
0.000619948
0.00061952
0.000619102
0.000618694
0.000618295
0.000617906
0.000617526
0.000617156
0.000616796
0.000616445
0.000616104
0.000615773
0.00061545
0.000615137
0.000614834
0.000614539
0.000614254
0.000613978
0.000613711
0.000613452
0.000613202
0.000612961
0.000612729
0.000612504
0.000612288
0.00061208
0.000611881
0.000611689
0.000611504
0.000611327
0.000611158
0.000610995
0.00061084
0.000610692
0.00061055
0.000610415
0.000610286
0.000610164
0.000610047
0.000609937
0.000609832
0.000609732
0.000609638
0.000609549
0.000609465
0.000609386
0.000609312
0.000609242
0.000609176
0.000609115
0.000609058
0.000609004
0.000608955
0.000608909
0.000608866
0.000608827
0.000608792
0.000608759
0.00060873
0.000608703
0.00060868
0.000608659
0.000608641
0.000608626
0.000608613
0.000608603
0.000608595
0.00060859
0.000608588
0.000608588
0.00060859
0.000608595
0.000608603
0.000608613
0.000608626
0.000608641
0.000608659
0.00060868
0.000608703
0.00060873
0.000608759
0.000608792
0.000608828
0.000608867
0.000608909
0.000608955
0.000609004
0.000609058
0.000609115
0.000609176
0.000609242
0.000609312
0.000609386
0.000609465
0.000609549
0.000609638
0.000609732
0.000609832
0.000609937
0.000610047
0.000610164
0.000610286
0.000610415
0.00061055
0.000610692
0.00061084
0.000610996
0.000611158
0.000611327
0.000611504
0.000611689
0.000611881
0.000612081
0.000612289
0.000612505
0.000612729
0.000612961
0.000613202
0.000613452
0.000613711
0.000613978
0.000614254
0.00061454
0.000614834
0.000615138
0.000615451
0.000615773
0.000616105
0.000616446
0.000616796
0.000617157
0.000617527
0.000617906
0.000618295
0.000618694
0.000619102
0.000619521
0.000619948
0.000620386
0.000620833
0.000621289
0.000621756
0.000622231
0.000622717
0.000623211
0.000623715
0.000624229
0.000624751
0.000625283
0.000625824
0.000626373
0.000626932
0.000627499
0.000628075
0.00062866
0.000629253
0.000629854
0.000630464
0.000631082
0.000631707
0.000632341
0.000632982
0.000633631
0.000634287
0.00063495
0.00063562
0.000636298
0.000636982
0.000637673
0.00063837
0.000639073
0.000639782
0.000640498
0.000641219
0.000641946
0.000642678
0.000643415
0.000644158
0.000644905
0.000645657
0.000646413
0.000647174
0.000647939
0.000648707
0.00064948
0.000650256
0.000651035
0.000651818
0.000652603
0.000653392
0.000654183
0.000654976
0.000655772
0.000656569
0.000657369
0.00065817
0.000658972
0.000659776
0.000660581
0.000661387
0.000662193
0.000663
0.000663808
0.000664615
0.000665422
0.00066623
0.000667036
0.000667843
0.000668648
0.000669452
0.000670256
0.000671058
0.000671858
0.000672657
0.000673454
0.000674249
0.000675042
0.000675832
0.00067662
0.000677405
0.000678187
0.000678966
0.000679742
0.000680515
0.000681284
0.000682049
0.00068281
0.000683568
0.000684321
0.00068507
0.000685814
0.000686553
0.000687288
0.000688018
0.000688742
0.000689462
0.000690176
0.000690884
0.000691586
0.000692283
0.000692974
0.000693658
0.000694336
0.000695008
0.000695673
0.000696331
0.000696983
0.000697627
0.000698264
0.000698894
0.000699517
0.000700131
0.000700739
0.000701338
0.00070193
0.000702513
0.000703088
0.000703655
0.000704213
0.000704763
0.000705304
0.000705836
0.000706359
0.000706874
0.000707378
0.000707874
0.00070836
0.000708837
0.000709304
0.000709761
0.000710208
0.000710645
0.000711072
0.000711489
0.000711896
0.000712292
0.000712677
0.000713052
0.000713416
0.000713769
0.000714111
0.000714442
0.000714762
0.00071507
0.000715367
0.000715652
0.000715926
0.000716188
0.000716438
0.000716677
0.000716903
0.000717117
0.000717319
0.000717508
0.000717685
0.00071785
0.000718002
0.000718141
0.000718267
0.000718381
0.000718481
0.000718569
0.000718643
0.000718704
0.000718751
0.000718785
0.000718806
0.000718812
0.000718805
0.000718785
0.00071875
0.000718701
0.000718638
0.000718561
0.00071847
0.000718364
0.000718244
0.000718109
0.00071796
0.000717796
0.000717617
0.000717424
0.000717215
0.000716991
0.000716752
0.000716498
0.000716229
0.000715944
0.000715644
0.000715328
0.000714997
0.000714649
0.000714286
0.000713908
0.000713513
0.000713102
0.000712675
0.000712232
0.000711772
0.000711297
0.000710804
0.000710295
0.00070977
0.000709228
0.000708669
0.000708093
0.000707501
0.000706891
0.000706264
0.00070562
0.000704959
0.000704281
0.000703585
0.000702872
0.000702141
0.000701393
0.000700626
0.000699843
0.000699041
0.000698221
0.000697383
0.000696528
0.000695654
0.000694761
0.000693851
0.000692922
0.000691975
0.000691009
0.000690025
0.000689021
0.000688
0.000686959
0.000685899
0.000684821
0.000683723
0.000682606
0.00068147
0.000680315
0.00067914
0.000677946
0.000676732
0.000675499
0.000674246
0.000672974
0.000671682
0.000670369
0.000669037
0.000667685
0.000666313
0.00066492
0.000663508
0.000662075
0.000660621
0.000659147
0.000657653
0.000656138
0.000654602
0.000653046
0.000651469
0.000649871
0.000648251
0.000646611
0.00064495
0.000643268
0.000641564
0.000639839
0.000638092
0.000636324
0.000634535
0.000632723
0.000630891
0.000629036
0.000627159
0.000625261
0.00062334
0.000621398
0.000619433
0.000617446
0.000615437
0.000613405
0.000611351
0.000609275
0.000607176
0.000605054
0.000602909
0.000600742
0.000598552
0.000596338
0.000594102
0.000591843
0.00058956
0.000587254
0.000584925
0.000582572
0.000580196
0.000577796
0.000575373
0.000572926
0.000570455
0.00056796
0.000565441
0.000562898
0.000560331
0.00055774
0.000555124
0.000552484
0.00054982
0.000547131
0.000544418
0.000541679
0.000538916
0.000536129
0.000533316
0.000530478
0.000527615
0.000524727
0.000521814
0.000518875
0.000515911
0.000512921
0.000509905
0.000506864
0.000503797
0.000500704
0.000497585
0.00049444
0.000491269
0.000488072
0.000484848
0.000481597
0.000478321
0.000475017
0.000471686
0.000468329
0.000464945
0.000461533
0.000458095
0.000454629
0.000451136
0.000447615
0.000444066
0.00044049
0.000436885
0.000433253
0.000429593
0.000425904
0.000422187
0.000418442
0.000414667
0.000410864
0.000407032
0.000403172
0.000399281
0.000395362
0.000391413
0.000387434
0.000383426
0.000379387
0.000375318
0.000371219
0.00036709
0.00036293
0.000358739
0.000354517
0.000350263
0.000345979
0.000341662
0.000337314
0.000332934
0.000328521
0.000324076
0.000319598
0.000315087
0.000310543
0.000305965
0.000301353
0.000296708
0.000292027
0.000287312
0.000282562
0.000277777
0.000272956
0.000268098
0.000263204
0.000258273
0.000253305
0.000248299
0.000243255
0.000238172
0.00023305
0.000227888
0.000222686
0.000217443
0.000212158
0.000206831
0.000201461
0.000196048
0.00019059
0.000185086
0.000179537
0.000173939
0.000168294
0.000162599
0.000156854
0.000151057
0.000145206
0.0001393
0.000133337
0.000127316
0.000121235
0.000115091
0.000108881
0.000102604
9.62563e-05
8.98345e-05
8.33353e-05
7.67549e-05
7.00897e-05
6.33358e-05
5.64902e-05
4.95515e-05
4.25225e-05
3.54154e-05
2.82641e-05
2.1154e-05
1.42965e-05
8.19796e-06
3.81749e-06
1.86185e-06
)
;

boundaryField
{
    top_wall
    {
        type            nutLowReWallFunction;
        value           uniform 0;
    }
    inlet
    {
        type            cyclic;
    }
    bot_wall
    {
        type            nutLowReWallFunction;
        value           uniform 0;
    }
    outlet
    {
        type            cyclic;
    }
    frontAndBack
    {
        type            empty;
    }
}


// ************************************************************************* //
