/*--------------------------------*- C++ -*----------------------------------*\
| =========                 |                                                 |
| \\      /  F ield         | OpenFOAM: The Open Source CFD Toolbox           |
|  \\    /   O peration     | Version:  2312                                  |
|   \\  /    A nd           | Website:  www.openfoam.com                      |
|    \\/     M anipulation  |                                                 |
\*---------------------------------------------------------------------------*/
FoamFile
{
    version     2.0;
    format      ascii;
    arch        "LSB;label=32;scalar=64";
    class       volVectorField;
    location    "24.93";
    object      U;
}
// * * * * * * * * * * * * * * * * * * * * * * * * * * * * * * * * * * * * * //

dimensions      [0 1 -1 0 0 0 0];

internalField   nonuniform List<vector> 
1000
(
(0.174601 -1.87382e-18 0)
(0.468108 -3.81831e-18 0)
(0.71718 -3.68555e-18 0)
(0.916425 -3.5275e-18 0)
(1.0761 -3.49571e-18 0)
(1.20753 -3.50385e-18 0)
(1.31881 -3.51079e-18 0)
(1.41524 -3.51377e-18 0)
(1.50036 -3.51264e-18 0)
(1.57661 -3.5126e-18 0)
(1.64573 -3.51433e-18 0)
(1.70898 -3.51414e-18 0)
(1.76733 -3.51362e-18 0)
(1.82151 -3.51222e-18 0)
(1.87211 -3.51004e-18 0)
(1.91959 -3.50711e-18 0)
(1.96435 -3.50347e-18 0)
(2.00668 -3.4991e-18 0)
(2.04686 -3.49481e-18 0)
(2.0851 -3.49318e-18 0)
(2.12159 -3.48936e-18 0)
(2.1565 -3.4855e-18 0)
(2.18996 -3.48553e-18 0)
(2.2221 -3.50089e-18 0)
(2.25302 -3.51437e-18 0)
(2.28282 -3.50881e-18 0)
(2.31158 -3.50022e-18 0)
(2.33937 -3.50303e-18 0)
(2.36627 -3.50297e-18 0)
(2.39233 -3.49584e-18 0)
(2.4176 -3.49261e-18 0)
(2.44214 -3.48895e-18 0)
(2.46599 -3.48726e-18 0)
(2.48919 -3.48666e-18 0)
(2.51177 -3.48548e-18 0)
(2.53377 -3.48272e-18 0)
(2.55523 -3.4828e-18 0)
(2.57616 -3.48415e-18 0)
(2.5966 -3.48558e-18 0)
(2.61657 -3.48605e-18 0)
(2.6361 -3.48453e-18 0)
(2.65519 -3.48338e-18 0)
(2.67389 -3.48235e-18 0)
(2.69219 -3.48139e-18 0)
(2.71012 -3.48045e-18 0)
(2.7277 -3.47949e-18 0)
(2.74493 -3.4792e-18 0)
(2.76184 -3.48025e-18 0)
(2.77844 -3.48262e-18 0)
(2.79474 -3.48559e-18 0)
(2.81074 -3.48845e-18 0)
(2.82647 -3.49121e-18 0)
(2.84193 -3.49389e-18 0)
(2.85713 -3.49649e-18 0)
(2.87208 -3.49902e-18 0)
(2.88679 -3.50149e-18 0)
(2.90127 -3.50391e-18 0)
(2.91553 -3.50627e-18 0)
(2.92957 -3.50859e-18 0)
(2.94339 -3.51087e-18 0)
(2.95702 -3.5131e-18 0)
(2.97045 -3.5153e-18 0)
(2.98369 -3.51745e-18 0)
(2.99674 -3.51957e-18 0)
(3.00962 -3.52164e-18 0)
(3.02232 -3.52366e-18 0)
(3.03485 -3.52563e-18 0)
(3.04722 -3.52755e-18 0)
(3.05943 -3.52941e-18 0)
(3.07148 -3.53121e-18 0)
(3.08339 -3.53295e-18 0)
(3.09515 -3.53462e-18 0)
(3.10677 -3.53621e-18 0)
(3.11824 -3.53773e-18 0)
(3.12959 -3.53916e-18 0)
(3.1408 -3.5405e-18 0)
(3.15188 -3.54176e-18 0)
(3.16284 -3.54292e-18 0)
(3.17368 -3.54397e-18 0)
(3.1844 -3.54493e-18 0)
(3.195 -3.54583e-18 0)
(3.20549 -3.54663e-18 0)
(3.21587 -3.54731e-18 0)
(3.22614 -3.54789e-18 0)
(3.23631 -3.54835e-18 0)
(3.24638 -3.54874e-18 0)
(3.25634 -3.54905e-18 0)
(3.2662 -3.54928e-18 0)
(3.27597 -3.54943e-18 0)
(3.28565 -3.54945e-18 0)
(3.29523 -3.54938e-18 0)
(3.30473 -3.54923e-18 0)
(3.31413 -3.549e-18 0)
(3.32345 -3.54869e-18 0)
(3.33268 -3.5483e-18 0)
(3.34184 -3.54784e-18 0)
(3.35091 -3.54731e-18 0)
(3.3599 -3.54675e-18 0)
(3.36881 -3.54617e-18 0)
(3.37765 -3.54562e-18 0)
(3.38641 -3.54515e-18 0)
(3.3951 -3.54483e-18 0)
(3.40372 -3.54478e-18 0)
(3.41227 -3.54516e-18 0)
(3.42075 -3.54618e-18 0)
(3.42916 -3.54814e-18 0)
(3.4375 -3.55184e-18 0)
(3.44578 -3.55179e-18 0)
(3.45399 -3.53081e-18 0)
(3.46215 -3.51125e-18 0)
(3.47023 -3.51366e-18 0)
(3.47826 -3.51944e-18 0)
(3.48623 -3.52333e-18 0)
(3.49414 -3.52617e-18 0)
(3.50199 -3.52844e-18 0)
(3.50979 -3.5305e-18 0)
(3.51753 -3.53274e-18 0)
(3.52521 -3.53553e-18 0)
(3.53284 -3.53947e-18 0)
(3.54042 -3.54269e-18 0)
(3.54794 -3.53961e-18 0)
(3.55542 -3.53615e-18 0)
(3.56284 -3.5381e-18 0)
(3.57021 -3.53981e-18 0)
(3.57754 -3.53937e-18 0)
(3.58482 -3.53723e-18 0)
(3.59205 -3.53359e-18 0)
(3.59923 -3.52859e-18 0)
(3.60636 -3.5223e-18 0)
(3.61346 -3.51472e-18 0)
(3.6205 -3.50615e-18 0)
(3.6275 -3.49192e-18 0)
(3.63446 -3.47242e-18 0)
(3.64138 -3.45264e-18 0)
(3.64826 -3.43918e-18 0)
(3.65509 -3.43267e-18 0)
(3.66188 -3.42068e-18 0)
(3.66863 -3.4025e-18 0)
(3.67535 -3.38462e-18 0)
(3.68202 -3.37359e-18 0)
(3.68866 -3.3685e-18 0)
(3.69525 -3.35705e-18 0)
(3.70181 -3.33852e-18 0)
(3.70834 -3.31949e-18 0)
(3.71482 -3.30651e-18 0)
(3.72127 -3.29997e-18 0)
(3.72769 -3.29387e-18 0)
(3.73407 -3.28748e-18 0)
(3.74041 -3.27724e-18 0)
(3.74672 -3.27227e-18 0)
(3.753 -3.26867e-18 0)
(3.75924 -3.26116e-18 0)
(3.76545 -3.25737e-18 0)
(3.77163 -3.25369e-18 0)
(3.77778 -3.25193e-18 0)
(3.78389 -3.25372e-18 0)
(3.78998 -3.25787e-18 0)
(3.79603 -3.25848e-18 0)
(3.80205 -3.25346e-18 0)
(3.80805 -3.24201e-18 0)
(3.81401 -3.22878e-18 0)
(3.81994 -3.21331e-18 0)
(3.82585 -3.19499e-18 0)
(3.83172 -3.18151e-18 0)
(3.83757 -3.17054e-18 0)
(3.84339 -3.15743e-18 0)
(3.84918 -3.13687e-18 0)
(3.85494 -3.11476e-18 0)
(3.86068 -3.09845e-18 0)
(3.86639 -3.08411e-18 0)
(3.87207 -3.06696e-18 0)
(3.87773 -3.04467e-18 0)
(3.88336 -3.02447e-18 0)
(3.88897 -3.01355e-18 0)
(3.89455 -3.0083e-18 0)
(3.9001 -3.00087e-18 0)
(3.90563 -2.98767e-18 0)
(3.91114 -2.97502e-18 0)
(3.91662 -2.96235e-18 0)
(3.92208 -2.94925e-18 0)
(3.92751 -2.94187e-18 0)
(3.93292 -2.93787e-18 0)
(3.93831 -2.93239e-18 0)
(3.94367 -2.92176e-18 0)
(3.94901 -2.91212e-18 0)
(3.95433 -2.90919e-18 0)
(3.95963 -2.90918e-18 0)
(3.9649 -2.90746e-18 0)
(3.97015 -2.90045e-18 0)
(3.97538 -2.89291e-18 0)
(3.98059 -2.88593e-18 0)
(3.98578 -2.88063e-18 0)
(3.99094 -2.88174e-18 0)
(3.99609 -2.88448e-18 0)
(4.00121 -2.88113e-18 0)
(4.00631 -2.86969e-18 0)
(4.0114 -2.85765e-18 0)
(4.01646 -2.85079e-18 0)
(4.0215 -2.84582e-18 0)
(4.02653 -2.83494e-18 0)
(4.03153 -2.81627e-18 0)
(4.03651 -2.79715e-18 0)
(4.04147 -2.78484e-18 0)
(4.04642 -2.7775e-18 0)
(4.05135 -2.76738e-18 0)
(4.05625 -2.75122e-18 0)
(4.06114 -2.73391e-18 0)
(4.06601 -2.71662e-18 0)
(4.07086 -2.70106e-18 0)
(4.07569 -2.68625e-18 0)
(4.08051 -2.66475e-18 0)
(4.0853 -2.63871e-18 0)
(4.09008 -2.61625e-18 0)
(4.09484 -2.59895e-18 0)
(4.09958 -2.58682e-18 0)
(4.10431 -2.5788e-18 0)
(4.10902 -2.5657e-18 0)
(4.11371 -2.54587e-18 0)
(4.11838 -2.52649e-18 0)
(4.12304 -2.51468e-18 0)
(4.12768 -2.50888e-18 0)
(4.1323 -2.49849e-18 0)
(4.13691 -2.48047e-18 0)
(4.1415 -2.46125e-18 0)
(4.14607 -2.44026e-18 0)
(4.15063 -2.41702e-18 0)
(4.15517 -2.39952e-18 0)
(4.1597 -2.38613e-18 0)
(4.16421 -2.36725e-18 0)
(4.1687 -2.34261e-18 0)
(4.17318 -2.31797e-18 0)
(4.17764 -2.2992e-18 0)
(4.18208 -2.2849e-18 0)
(4.18651 -2.26445e-18 0)
(4.19093 -2.23385e-18 0)
(4.19533 -2.2164e-18 0)
(4.19971 -2.20753e-18 0)
(4.20408 -2.19211e-18 0)
(4.20844 -2.17536e-18 0)
(4.21277 -2.15364e-18 0)
(4.2171 -2.13213e-18 0)
(4.22141 -2.11064e-18 0)
(4.2257 -2.08886e-18 0)
(4.22998 -2.07471e-18 0)
(4.23425 -2.06677e-18 0)
(4.2385 -2.05106e-18 0)
(4.24274 -2.0283e-18 0)
(4.24696 -2.00264e-18 0)
(4.25116 -1.97437e-18 0)
(4.25536 -1.95379e-18 0)
(4.25954 -1.94372e-18 0)
(4.2637 -1.93504e-18 0)
(4.26785 -1.91765e-18 0)
(4.27199 -1.86892e-18 0)
(4.27611 -1.81794e-18 0)
(4.28022 -1.80227e-18 0)
(4.28432 -1.79808e-18 0)
(4.2884 -1.77665e-18 0)
(4.29247 -1.73035e-18 0)
(4.29652 -1.69317e-18 0)
(4.30056 -1.67611e-18 0)
(4.30459 -1.66139e-18 0)
(4.3086 -1.64956e-18 0)
(4.3126 -1.61752e-18 0)
(4.31659 -1.55391e-18 0)
(4.32056 -1.51346e-18 0)
(4.32452 -1.50526e-18 0)
(4.32847 -1.48157e-18 0)
(4.3324 -1.44929e-18 0)
(4.33632 -1.43058e-18 0)
(4.34022 -1.40888e-18 0)
(4.34412 -1.38004e-18 0)
(4.348 -1.35202e-18 0)
(4.35187 -1.31871e-18 0)
(4.35572 -1.28458e-18 0)
(4.35956 -1.26037e-18 0)
(4.36339 -1.24572e-18 0)
(4.3672 -1.23916e-18 0)
(4.37101 -1.23811e-18 0)
(4.37479 -1.22999e-18 0)
(4.37857 -1.21305e-18 0)
(4.38233 -1.19445e-18 0)
(4.38608 -1.18279e-18 0)
(4.38982 -1.1779e-18 0)
(4.39355 -1.15018e-18 0)
(4.39726 -1.11509e-18 0)
(4.40096 -1.09575e-18 0)
(4.40464 -1.07623e-18 0)
(4.40832 -1.03895e-18 0)
(4.41198 -1.00861e-18 0)
(4.41563 -1.00227e-18 0)
(4.41926 -9.88625e-19 0)
(4.42289 -9.66021e-19 0)
(4.4265 -9.5275e-19 0)
(4.43009 -9.46771e-19 0)
(4.43368 -9.39016e-19 0)
(4.43725 -9.26271e-19 0)
(4.44081 -9.05105e-19 0)
(4.44436 -8.81271e-19 0)
(4.44789 -8.54873e-19 0)
(4.45141 -8.27446e-19 0)
(4.45492 -8.08021e-19 0)
(4.45842 -7.94834e-19 0)
(4.4619 -7.72516e-19 0)
(4.46537 -7.42585e-19 0)
(4.46883 -7.13865e-19 0)
(4.47228 -6.92887e-19 0)
(4.47571 -6.8102e-19 0)
(4.47913 -6.6215e-19 0)
(4.48254 -6.1818e-19 0)
(4.48594 -5.65567e-19 0)
(4.48932 -5.26615e-19 0)
(4.49269 -5.08367e-19 0)
(4.49604 -5.11043e-19 0)
(4.49939 -5.18672e-19 0)
(4.50272 -5.23035e-19 0)
(4.50604 -5.26044e-19 0)
(4.50935 -5.29016e-19 0)
(4.51264 -5.31824e-19 0)
(4.51592 -5.34453e-19 0)
(4.51919 -5.36904e-19 0)
(4.52244 -5.39188e-19 0)
(4.52568 -5.41296e-19 0)
(4.52891 -5.43221e-19 0)
(4.53213 -5.44972e-19 0)
(4.53533 -5.46541e-19 0)
(4.53852 -5.47926e-19 0)
(4.5417 -5.49126e-19 0)
(4.54486 -5.50143e-19 0)
(4.54802 -5.50983e-19 0)
(4.55115 -5.51636e-19 0)
(4.55428 -5.52113e-19 0)
(4.55739 -5.52423e-19 0)
(4.56049 -5.52578e-19 0)
(4.56357 -5.52593e-19 0)
(4.56665 -5.52461e-19 0)
(4.56971 -5.52194e-19 0)
(4.57275 -5.51805e-19 0)
(4.57578 -5.51304e-19 0)
(4.5788 -5.50703e-19 0)
(4.58181 -5.50009e-19 0)
(4.5848 -5.49232e-19 0)
(4.58778 -5.48364e-19 0)
(4.59074 -5.47414e-19 0)
(4.5937 -5.46387e-19 0)
(4.59663 -5.45292e-19 0)
(4.59956 -5.44134e-19 0)
(4.60247 -5.42917e-19 0)
(4.60537 -5.41647e-19 0)
(4.60825 -5.40326e-19 0)
(4.61112 -5.38958e-19 0)
(4.61397 -5.37546e-19 0)
(4.61681 -5.36094e-19 0)
(4.61964 -5.34603e-19 0)
(4.62245 -5.33077e-19 0)
(4.62525 -5.31517e-19 0)
(4.62804 -5.29925e-19 0)
(4.63081 -5.28306e-19 0)
(4.63356 -5.26643e-19 0)
(4.6363 -5.24939e-19 0)
(4.63903 -5.23196e-19 0)
(4.64174 -5.21431e-19 0)
(4.64444 -5.19646e-19 0)
(4.64712 -5.17842e-19 0)
(4.64979 -5.16004e-19 0)
(4.65245 -5.14136e-19 0)
(4.65509 -5.1224e-19 0)
(4.65771 -5.10318e-19 0)
(4.66032 -5.08371e-19 0)
(4.66291 -5.06402e-19 0)
(4.66549 -5.04413e-19 0)
(4.66806 -5.02406e-19 0)
(4.6706 -5.00382e-19 0)
(4.67314 -4.98345e-19 0)
(4.67566 -4.96295e-19 0)
(4.67816 -4.94235e-19 0)
(4.68065 -4.92166e-19 0)
(4.68312 -4.90091e-19 0)
(4.68557 -4.8801e-19 0)
(4.68801 -4.85926e-19 0)
(4.69044 -4.83839e-19 0)
(4.69284 -4.81752e-19 0)
(4.69524 -4.79666e-19 0)
(4.69761 -4.77582e-19 0)
(4.69997 -4.75501e-19 0)
(4.70232 -4.73425e-19 0)
(4.70464 -4.71354e-19 0)
(4.70695 -4.6929e-19 0)
(4.70925 -4.67234e-19 0)
(4.71153 -4.65187e-19 0)
(4.71379 -4.63149e-19 0)
(4.71603 -4.61121e-19 0)
(4.71826 -4.59105e-19 0)
(4.72047 -4.571e-19 0)
(4.72267 -4.55108e-19 0)
(4.72484 -4.5313e-19 0)
(4.727 -4.51165e-19 0)
(4.72914 -4.49214e-19 0)
(4.73127 -4.47278e-19 0)
(4.73338 -4.45357e-19 0)
(4.73547 -4.43452e-19 0)
(4.73754 -4.41562e-19 0)
(4.73959 -4.39689e-19 0)
(4.74163 -4.37833e-19 0)
(4.74365 -4.35994e-19 0)
(4.74565 -4.34171e-19 0)
(4.74763 -4.32366e-19 0)
(4.7496 -4.30579e-19 0)
(4.75155 -4.28809e-19 0)
(4.75348 -4.27057e-19 0)
(4.75539 -4.25324e-19 0)
(4.75728 -4.23608e-19 0)
(4.75915 -4.21912e-19 0)
(4.76101 -4.20235e-19 0)
(4.76284 -4.18567e-19 0)
(4.76466 -4.16909e-19 0)
(4.76646 -4.15259e-19 0)
(4.76824 -4.13627e-19 0)
(4.77 -4.12012e-19 0)
(4.77174 -4.10412e-19 0)
(4.77346 -4.0883e-19 0)
(4.77516 -4.07256e-19 0)
(4.77684 -4.0569e-19 0)
(4.77851 -4.04132e-19 0)
(4.78015 -4.02592e-19 0)
(4.78178 -4.01069e-19 0)
(4.78338 -3.99563e-19 0)
(4.78497 -3.98065e-19 0)
(4.78653 -3.96576e-19 0)
(4.78808 -3.95095e-19 0)
(4.7896 -3.93631e-19 0)
(4.79111 -3.92184e-19 0)
(4.79259 -3.90755e-19 0)
(4.79405 -3.89334e-19 0)
(4.7955 -3.87921e-19 0)
(4.79692 -3.86525e-19 0)
(4.79833 -3.85145e-19 0)
(4.79971 -3.83782e-19 0)
(4.80107 -3.82426e-19 0)
(4.80241 -3.81086e-19 0)
(4.80373 -3.79762e-19 0)
(4.80503 -3.78453e-19 0)
(4.80631 -3.77161e-19 0)
(4.80757 -3.75876e-19 0)
(4.8088 -3.74597e-19 0)
(4.81002 -3.73336e-19 0)
(4.81122 -3.7209e-19 0)
(4.81239 -3.70859e-19 0)
(4.81354 -3.69645e-19 0)
(4.81467 -3.68439e-19 0)
(4.81578 -3.67239e-19 0)
(4.81687 -3.66055e-19 0)
(4.81794 -3.64887e-19 0)
(4.81898 -3.63735e-19 0)
(4.82 -3.62597e-19 0)
(4.82101 -3.61473e-19 0)
(4.82199 -3.60363e-19 0)
(4.82295 -3.59267e-19 0)
(4.82388 -3.58178e-19 0)
(4.8248 -3.57098e-19 0)
(4.82569 -3.56025e-19 0)
(4.82656 -3.54959e-19 0)
(4.82741 -3.53905e-19 0)
(4.82824 -3.52858e-19 0)
(4.82904 -3.51818e-19 0)
(4.82983 -3.50784e-19 0)
(4.83059 -3.49761e-19 0)
(4.83133 -3.48749e-19 0)
(4.83205 -3.47744e-19 0)
(4.83274 -3.46745e-19 0)
(4.83341 -3.45751e-19 0)
(4.83406 -3.44767e-19 0)
(4.83469 -3.43792e-19 0)
(4.8353 -3.42826e-19 0)
(4.83588 -3.41868e-19 0)
(4.83645 -3.4092e-19 0)
(4.83698 -3.39976e-19 0)
(4.8375 -3.39037e-19 0)
(4.838 -3.38102e-19 0)
(4.83847 -3.37177e-19 0)
(4.83892 -3.36258e-19 0)
(4.83935 -3.35344e-19 0)
(4.83975 -3.34436e-19 0)
(4.84013 -3.33534e-19 0)
(4.8405 -3.32636e-19 0)
(4.84083 -3.31743e-19 0)
(4.84115 -3.30854e-19 0)
(4.84144 -3.2997e-19 0)
(4.84171 -3.2909e-19 0)
(4.84196 -3.28213e-19 0)
(4.84218 -3.27341e-19 0)
(4.84239 -3.26473e-19 0)
(4.84257 -3.2561e-19 0)
(4.84273 -3.24751e-19 0)
(4.84286 -3.23895e-19 0)
(4.84297 -3.23043e-19 0)
(4.84306 -3.22194e-19 0)
(4.84313 -3.21348e-19 0)
(4.84318 -3.20505e-19 0)
(4.8432 -3.19665e-19 0)
(4.8432 -3.18827e-19 0)
(4.84318 -3.17991e-19 0)
(4.84313 -3.17158e-19 0)
(4.84306 -3.16327e-19 0)
(4.84297 -3.15497e-19 0)
(4.84286 -3.14668e-19 0)
(4.84273 -3.13841e-19 0)
(4.84257 -3.13015e-19 0)
(4.84239 -3.12191e-19 0)
(4.84218 -3.11367e-19 0)
(4.84196 -3.10544e-19 0)
(4.84171 -3.09721e-19 0)
(4.84144 -3.08898e-19 0)
(4.84115 -3.08074e-19 0)
(4.84083 -3.0725e-19 0)
(4.84049 -3.06424e-19 0)
(4.84013 -3.05598e-19 0)
(4.83975 -3.04769e-19 0)
(4.83935 -3.03939e-19 0)
(4.83892 -3.03107e-19 0)
(4.83847 -3.02272e-19 0)
(4.838 -3.01435e-19 0)
(4.8375 -3.00595e-19 0)
(4.83698 -2.99751e-19 0)
(4.83645 -2.98904e-19 0)
(4.83588 -2.98053e-19 0)
(4.8353 -2.97198e-19 0)
(4.83469 -2.96339e-19 0)
(4.83406 -2.95476e-19 0)
(4.83341 -2.94607e-19 0)
(4.83274 -2.93734e-19 0)
(4.83205 -2.92856e-19 0)
(4.83133 -2.91972e-19 0)
(4.83059 -2.91083e-19 0)
(4.82983 -2.90188e-19 0)
(4.82904 -2.89287e-19 0)
(4.82824 -2.8838e-19 0)
(4.82741 -2.87467e-19 0)
(4.82656 -2.86547e-19 0)
(4.82569 -2.85621e-19 0)
(4.8248 -2.84688e-19 0)
(4.82388 -2.83749e-19 0)
(4.82295 -2.82803e-19 0)
(4.82199 -2.81849e-19 0)
(4.82101 -2.80889e-19 0)
(4.82 -2.79922e-19 0)
(4.81898 -2.78947e-19 0)
(4.81794 -2.77965e-19 0)
(4.81687 -2.76976e-19 0)
(4.81578 -2.7598e-19 0)
(4.81467 -2.74977e-19 0)
(4.81354 -2.73966e-19 0)
(4.81239 -2.72949e-19 0)
(4.81122 -2.71924e-19 0)
(4.81002 -2.70892e-19 0)
(4.8088 -2.69854e-19 0)
(4.80757 -2.68809e-19 0)
(4.80631 -2.67758e-19 0)
(4.80503 -2.667e-19 0)
(4.80373 -2.65637e-19 0)
(4.80241 -2.64568e-19 0)
(4.80107 -2.63494e-19 0)
(4.79971 -2.62415e-19 0)
(4.79833 -2.61332e-19 0)
(4.79692 -2.60244e-19 0)
(4.7955 -2.59153e-19 0)
(4.79405 -2.58058e-19 0)
(4.79259 -2.56961e-19 0)
(4.79111 -2.55862e-19 0)
(4.7896 -2.54762e-19 0)
(4.78808 -2.53661e-19 0)
(4.78653 -2.52559e-19 0)
(4.78497 -2.51459e-19 0)
(4.78338 -2.5036e-19 0)
(4.78178 -2.49264e-19 0)
(4.78015 -2.48172e-19 0)
(4.77851 -2.47084e-19 0)
(4.77684 -2.46002e-19 0)
(4.77516 -2.44927e-19 0)
(4.77346 -2.43861e-19 0)
(4.77174 -2.42804e-19 0)
(4.77 -2.41759e-19 0)
(4.76824 -2.40727e-19 0)
(4.76646 -2.39709e-19 0)
(4.76466 -2.38706e-19 0)
(4.76284 -2.37721e-19 0)
(4.76101 -2.36755e-19 0)
(4.75915 -2.358e-19 0)
(4.75728 -2.34868e-19 0)
(4.75539 -2.33963e-19 0)
(4.75348 -2.33086e-19 0)
(4.75155 -2.32238e-19 0)
(4.7496 -2.31422e-19 0)
(4.74763 -2.30619e-19 0)
(4.74565 -2.29829e-19 0)
(4.74365 -2.29069e-19 0)
(4.74163 -2.28339e-19 0)
(4.73959 -2.27637e-19 0)
(4.73754 -2.26942e-19 0)
(4.73547 -2.2627e-19 0)
(4.73338 -2.25618e-19 0)
(4.73127 -2.24982e-19 0)
(4.72914 -2.24357e-19 0)
(4.727 -2.23738e-19 0)
(4.72484 -2.2312e-19 0)
(4.72266 -2.22494e-19 0)
(4.72047 -2.21852e-19 0)
(4.71826 -2.21181e-19 0)
(4.71603 -2.20467e-19 0)
(4.71379 -2.19713e-19 0)
(4.71153 -2.18902e-19 0)
(4.70925 -2.18015e-19 0)
(4.70695 -2.17032e-19 0)
(4.70464 -2.15948e-19 0)
(4.70232 -2.14742e-19 0)
(4.69997 -2.13386e-19 0)
(4.69761 -2.11873e-19 0)
(4.69524 -2.10173e-19 0)
(4.69284 -2.08257e-19 0)
(4.69044 -2.06111e-19 0)
(4.68801 -2.03698e-19 0)
(4.68557 -2.00981e-19 0)
(4.68312 -1.97914e-19 0)
(4.68064 -1.94461e-19 0)
(4.67816 -1.90557e-19 0)
(4.67566 -1.86118e-19 0)
(4.67314 -1.81036e-19 0)
(4.6706 -1.75164e-19 0)
(4.66806 -1.68282e-19 0)
(4.66549 -1.60109e-19 0)
(4.66291 -1.49964e-19 0)
(4.66032 -1.42478e-19 0)
(4.65771 -1.66903e-19 0)
(4.65509 -1.91253e-19 0)
(4.65245 -1.83656e-19 0)
(4.64979 -1.73362e-19 0)
(4.64712 -1.64978e-19 0)
(4.64444 -1.57827e-19 0)
(4.64174 -1.51625e-19 0)
(4.63903 -1.46152e-19 0)
(4.6363 -1.41261e-19 0)
(4.63356 -1.36843e-19 0)
(4.63081 -1.32814e-19 0)
(4.62804 -1.29108e-19 0)
(4.62525 -1.25688e-19 0)
(4.62245 -1.22506e-19 0)
(4.61964 -1.19521e-19 0)
(4.61681 -1.16714e-19 0)
(4.61397 -1.14051e-19 0)
(4.61112 -1.11501e-19 0)
(4.60825 -1.09054e-19 0)
(4.60536 -1.06682e-19 0)
(4.60247 -1.04359e-19 0)
(4.59956 -1.02081e-19 0)
(4.59663 -9.98247e-20 0)
(4.5937 -9.75725e-20 0)
(4.59074 -9.53063e-20 0)
(4.58778 -9.30291e-20 0)
(4.5848 -9.07277e-20 0)
(4.58181 -8.83923e-20 0)
(4.5788 -8.60167e-20 0)
(4.57578 -8.35962e-20 0)
(4.57275 -8.11284e-20 0)
(4.56971 -7.86126e-20 0)
(4.56665 -7.60507e-20 0)
(4.56357 -7.3446e-20 0)
(4.56049 -7.08041e-20 0)
(4.55739 -6.81335e-20 0)
(4.55428 -6.5446e-20 0)
(4.55115 -6.27564e-20 0)
(4.54802 -6.00641e-20 0)
(4.54486 -5.73889e-20 0)
(4.5417 -5.47519e-20 0)
(4.53852 -5.21777e-20 0)
(4.53533 -4.96757e-20 0)
(4.53213 -4.72759e-20 0)
(4.52891 -4.4993e-20 0)
(4.52568 -4.28625e-20 0)
(4.52244 -4.09052e-20 0)
(4.51919 -3.91626e-20 0)
(4.51592 -3.76622e-20 0)
(4.51264 -3.64525e-20 0)
(4.50935 -3.55683e-20 0)
(4.50604 -3.50473e-20 0)
(4.50272 -3.49305e-20 0)
(4.49939 -3.52615e-20 0)
(4.49604 -3.61048e-20 0)
(4.49269 -3.74918e-20 0)
(4.48932 -3.94892e-20 0)
(4.48593 -4.21279e-20 0)
(4.48254 -4.54371e-20 0)
(4.47913 -4.94739e-20 0)
(4.47571 -5.42489e-20 0)
(4.47228 -5.97571e-20 0)
(4.46883 -6.60066e-20 0)
(4.46537 -7.29389e-20 0)
(4.4619 -8.04903e-20 0)
(4.45842 -8.85477e-20 0)
(4.45492 -9.69365e-20 0)
(4.45141 -1.05442e-19 0)
(4.44789 -1.13909e-19 0)
(4.44436 -1.20594e-19 0)
(4.44081 -1.23324e-19 0)
(4.43725 -1.25295e-19 0)
(4.43368 -1.33605e-19 0)
(4.43009 -1.37756e-19 0)
(4.4265 -1.28657e-19 0)
(4.42289 -1.16245e-19 0)
(4.41926 -1.0484e-19 0)
(4.41563 -9.35463e-20 0)
(4.41198 -8.18547e-20 0)
(4.40832 -6.91218e-20 0)
(4.40464 -5.61919e-20 0)
(4.40096 -4.76809e-20 0)
(4.39726 -6.00265e-20 0)
(4.39355 -7.14874e-20 0)
(4.38982 -5.89398e-20 0)
(4.38608 -5.54785e-20 0)
(4.38233 -5.49834e-20 0)
(4.37857 -5.17614e-20 0)
(4.37479 -5.07659e-20 0)
(4.371 -4.03591e-20 0)
(4.3672 -2.93219e-20 0)
(4.36339 -2.05092e-20 0)
(4.35956 -1.31768e-20 0)
(4.35572 -6.96032e-21 0)
(4.35186 -1.4955e-21 0)
(4.348 3.51005e-21 0)
(4.34412 8.28772e-21 0)
(4.34022 1.30222e-20 0)
(4.33632 1.7832e-20 0)
(4.3324 2.27837e-20 0)
(4.32847 2.7943e-20 0)
(4.32452 3.3351e-20 0)
(4.32056 3.90022e-20 0)
(4.31659 4.49251e-20 0)
(4.3126 5.11167e-20 0)
(4.3086 5.75848e-20 0)
(4.30459 6.43109e-20 0)
(4.30056 7.12786e-20 0)
(4.29652 7.83443e-20 0)
(4.29247 8.57314e-20 0)
(4.2884 8.973e-20 0)
(4.28432 6.36244e-20 0)
(4.28022 3.76295e-20 0)
(4.27611 4.19014e-20 0)
(4.27199 4.98421e-20 0)
(4.26785 5.63309e-20 0)
(4.2637 6.0071e-20 0)
(4.25954 6.24681e-20 0)
(4.25536 6.49156e-20 0)
(4.25116 6.73107e-20 0)
(4.24696 6.96851e-20 0)
(4.24274 7.20577e-20 0)
(4.2385 7.44368e-20 0)
(4.23425 7.68214e-20 0)
(4.22998 7.92415e-20 0)
(4.2257 8.16912e-20 0)
(4.22141 8.41674e-20 0)
(4.2171 8.66666e-20 0)
(4.21277 8.91856e-20 0)
(4.20844 9.17244e-20 0)
(4.20408 9.4286e-20 0)
(4.19971 9.6875e-20 0)
(4.19533 9.94977e-20 0)
(4.19093 1.0216e-19 0)
(4.18651 1.0487e-19 0)
(4.18208 1.07631e-19 0)
(4.17764 1.10452e-19 0)
(4.17317 1.13304e-19 0)
(4.1687 1.16191e-19 0)
(4.1642 1.19117e-19 0)
(4.1597 1.22079e-19 0)
(4.15517 1.25072e-19 0)
(4.15063 1.28089e-19 0)
(4.14607 1.31152e-19 0)
(4.1415 1.34251e-19 0)
(4.13691 1.37371e-19 0)
(4.1323 1.40499e-19 0)
(4.12768 1.43614e-19 0)
(4.12304 1.46698e-19 0)
(4.11838 1.49726e-19 0)
(4.11371 1.52709e-19 0)
(4.10902 1.55626e-19 0)
(4.10431 1.58453e-19 0)
(4.09958 1.61168e-19 0)
(4.09484 1.63748e-19 0)
(4.09008 1.66214e-19 0)
(4.0853 1.68552e-19 0)
(4.08051 1.70754e-19 0)
(4.07569 1.72822e-19 0)
(4.07086 1.74767e-19 0)
(4.06601 1.76607e-19 0)
(4.06114 1.78374e-19 0)
(4.05625 1.80114e-19 0)
(4.05134 1.81853e-19 0)
(4.04642 1.83669e-19 0)
(4.04147 1.85618e-19 0)
(4.03651 1.87774e-19 0)
(4.03153 1.90226e-19 0)
(4.02652 1.93069e-19 0)
(4.0215 1.96412e-19 0)
(4.01646 2.00374e-19 0)
(4.0114 2.05079e-19 0)
(4.00631 2.10856e-19 0)
(4.00121 2.15201e-19 0)
(3.99609 1.94828e-19 0)
(3.99094 1.7439e-19 0)
(3.98578 1.78548e-19 0)
(3.98059 1.84005e-19 0)
(3.97538 1.88294e-19 0)
(3.97015 1.91709e-19 0)
(3.9649 1.94378e-19 0)
(3.95963 1.96419e-19 0)
(3.95433 1.97941e-19 0)
(3.94901 1.99042e-19 0)
(3.94367 1.99806e-19 0)
(3.93831 2.00305e-19 0)
(3.93292 2.00593e-19 0)
(3.92751 2.00745e-19 0)
(3.92208 2.00821e-19 0)
(3.91662 2.00827e-19 0)
(3.91114 2.00792e-19 0)
(3.90563 2.00732e-19 0)
(3.9001 2.00653e-19 0)
(3.89455 2.00545e-19 0)
(3.88897 2.00429e-19 0)
(3.88336 2.0028e-19 0)
(3.87773 2.00068e-19 0)
(3.87207 1.99758e-19 0)
(3.86639 1.99347e-19 0)
(3.86068 1.98791e-19 0)
(3.85494 1.9804e-19 0)
(3.84918 1.97079e-19 0)
(3.84339 1.95851e-19 0)
(3.83757 1.94291e-19 0)
(3.83172 1.92329e-19 0)
(3.82585 1.89922e-19 0)
(3.81994 1.86977e-19 0)
(3.81401 1.83385e-19 0)
(3.80805 1.79013e-19 0)
(3.80205 1.73687e-19 0)
(3.79603 1.67086e-19 0)
(3.78998 1.59025e-19 0)
(3.78389 1.48571e-19 0)
(3.77778 1.47799e-19 0)
(3.77163 1.46489e-19 0)
(3.76545 1.3576e-19 0)
(3.75924 1.27774e-19 0)
(3.753 1.20074e-19 0)
(3.74672 1.12604e-19 0)
(3.74041 1.05101e-19 0)
(3.73407 9.74119e-20 0)
(3.72769 8.97463e-20 0)
(3.72127 7.82539e-20 0)
(3.71482 8.31825e-20 0)
(3.70834 8.74353e-20 0)
(3.70181 7.36014e-20 0)
(3.69525 6.34946e-20 0)
(3.68866 5.47506e-20 0)
(3.68202 4.75831e-20 0)
(3.67535 4.20558e-20 0)
(3.66863 3.81533e-20 0)
(3.66188 3.58926e-20 0)
(3.65509 3.52545e-20 0)
(3.64826 3.62407e-20 0)
(3.64138 3.87927e-20 0)
(3.63446 4.31432e-20 0)
(3.6275 4.68266e-20 0)
(3.6205 2.66066e-20 0)
(3.61346 6.86828e-21 0)
(3.60636 1.23022e-20 0)
(3.59923 2.00166e-20 0)
(3.59204 2.40701e-20 0)
(3.58482 2.84341e-20 0)
(3.57754 3.12874e-20 0)
(3.57021 3.06704e-20 0)
(3.56284 3.05421e-20 0)
(3.55542 2.52471e-20 0)
(3.54794 2.749e-20 0)
(3.54042 2.88425e-20 0)
(3.53284 1.91138e-20 0)
(3.52521 1.0768e-20 0)
(3.51753 3.16416e-21 0)
(3.50979 -3.72389e-21 0)
(3.50199 -1.01139e-20 0)
(3.49414 -1.61801e-20 0)
(3.48623 -2.18955e-20 0)
(3.47826 -3.00007e-20 0)
(3.47023 -3.60186e-20 0)
(3.46214 -4.14111e-20 0)
(3.45399 -4.77495e-20 0)
(3.44578 -5.05132e-20 0)
(3.4375 -5.2437e-20 0)
(3.42916 -5.35148e-20 0)
(3.42075 -5.38967e-20 0)
(3.41227 -5.37002e-20 0)
(3.40372 -5.30187e-20 0)
(3.3951 -5.19299e-20 0)
(3.38641 -5.05067e-20 0)
(3.37765 -4.88194e-20 0)
(3.36881 -4.6888e-20 0)
(3.3599 -4.47837e-20 0)
(3.35091 -4.25803e-20 0)
(3.34184 -4.02996e-20 0)
(3.33268 -3.80194e-20 0)
(3.32345 -3.5819e-20 0)
(3.31413 -3.37243e-20 0)
(3.30473 -3.1818e-20 0)
(3.29523 -3.01285e-20 0)
(3.28565 -2.87348e-20 0)
(3.27597 -2.7657e-20 0)
(3.2662 -2.69603e-20 0)
(3.25634 -2.664e-20 0)
(3.24638 -2.67217e-20 0)
(3.23631 -2.71386e-20 0)
(3.22614 -2.78319e-20 0)
(3.21587 -2.8677e-20 0)
(3.20549 -2.94691e-20 0)
(3.195 -2.99616e-20 0)
(3.1844 -2.94831e-20 0)
(3.17368 -3.19692e-20 0)
(3.16284 -4.54543e-20 0)
(3.15188 -5.91951e-20 0)
(3.1408 -6.22873e-20 0)
(3.12959 -6.27009e-20 0)
(3.11824 -6.44802e-20 0)
(3.10677 -6.53529e-20 0)
(3.09515 -6.50933e-20 0)
(3.08339 -6.49916e-20 0)
(3.07148 -6.47619e-20 0)
(3.05943 -6.43142e-20 0)
(3.04722 -6.3605e-20 0)
(3.03485 -6.25581e-20 0)
(3.02232 -6.11835e-20 0)
(3.00962 -5.95072e-20 0)
(2.99674 -5.74931e-20 0)
(2.98369 -5.51767e-20 0)
(2.97045 -5.25921e-20 0)
(2.95702 -4.97722e-20 0)
(2.94339 -4.67492e-20 0)
(2.92957 -4.35567e-20 0)
(2.91553 -4.01519e-20 0)
(2.90127 -3.65637e-20 0)
(2.88679 -3.28047e-20 0)
(2.87208 -2.87805e-20 0)
(2.85713 -2.65226e-20 0)
(2.84193 -2.94378e-20 0)
(2.82647 -3.16365e-20 0)
(2.81074 -2.7925e-20 0)
(2.79474 -2.22236e-20 0)
(2.77844 -1.65394e-20 0)
(2.76184 -1.08641e-20 0)
(2.74493 -4.53549e-21 0)
(2.7277 3.30678e-21 0)
(2.71012 9.47919e-21 0)
(2.69219 1.57464e-20 0)
(2.67389 2.18536e-20 0)
(2.65519 2.76794e-20 0)
(2.6361 3.58402e-20 0)
(2.61657 4.33568e-20 0)
(2.5966 5.07094e-20 0)
(2.57616 5.80304e-20 0)
(2.55523 6.57438e-20 0)
(2.53377 7.43623e-20 0)
(2.51177 8.15921e-20 0)
(2.48919 8.03883e-20 0)
(2.46599 7.84445e-20 0)
(2.44214 8.38031e-20 0)
(2.4176 8.9492e-20 0)
(2.39233 9.29717e-20 0)
(2.36627 9.47661e-20 0)
(2.33937 9.4726e-20 0)
(2.31158 9.27909e-20 0)
(2.28282 8.90447e-20 0)
(2.25302 8.2008e-20 0)
(2.2221 7.3106e-20 0)
(2.18996 6.3823e-20 0)
(2.1565 5.61065e-20 0)
(2.12159 5.223e-20 0)
(2.0851 4.76492e-20 0)
(2.04686 4.20478e-20 0)
(2.00668 3.62782e-20 0)
(1.96435 3.13096e-20 0)
(1.91959 2.84941e-20 0)
(1.87211 2.49765e-20 0)
(1.82151 2.04844e-20 0)
(1.76733 1.56848e-20 0)
(1.70898 1.02797e-20 0)
(1.64573 3.61768e-21 0)
(1.57661 6.16069e-21 0)
(1.50036 1.00448e-20 0)
(1.41524 7.55409e-21 0)
(1.31881 7.77565e-21 0)
(1.20753 4.53668e-21 0)
(1.0761 1.53478e-21 0)
(0.916425 -1.58657e-21 0)
(0.71718 -2.87074e-21 0)
(0.468108 -2.36728e-21 0)
(0.174601 8.06356e-22 0)
)
;

boundaryField
{
    top_wall
    {
        type            noSlip;
    }
    inlet
    {
        type            cyclic;
    }
    bot_wall
    {
        type            noSlip;
    }
    outlet
    {
        type            cyclic;
    }
    frontAndBack
    {
        type            empty;
    }
}


// ************************************************************************* //
