# Wall shear stress
# Time          	patch           	min             	max             
0.5             	top_wall	(-1.46709545e-01 1.56404375e-22 0.00000000e+00)	(-1.46709545e-01 1.56404375e-22 0.00000000e+00)
0.5             	bot_wall	(-1.46709778e-01 1.45841653e-18 0.00000000e+00)	(-1.46709778e-01 1.45841653e-18 0.00000000e+00)
1               	top_wall	(-1.34730074e-01 -1.13478582e-21 0.00000000e+00)	(-1.34730074e-01 -1.13478582e-21 0.00000000e+00)
1               	bot_wall	(-1.34730224e-01 1.34339847e-18 0.00000000e+00)	(-1.34730224e-01 1.34339847e-18 0.00000000e+00)
1.5             	top_wall	(-1.28125620e-01 -9.32326365e-22 0.00000000e+00)	(-1.28125620e-01 -9.32326365e-22 0.00000000e+00)
1.5             	bot_wall	(-1.28125747e-01 1.15507905e-18 0.00000000e+00)	(-1.28125747e-01 1.15507905e-18 0.00000000e+00)
2               	top_wall	(-1.23717593e-01 5.83265795e-24 0.00000000e+00)	(-1.23717593e-01 5.83265795e-24 0.00000000e+00)
2               	bot_wall	(-1.23717707e-01 1.30054283e-18 0.00000000e+00)	(-1.23717707e-01 1.30054283e-18 0.00000000e+00)
2.5             	top_wall	(-1.20458012e-01 -2.32587329e-22 0.00000000e+00)	(-1.20458012e-01 -2.32587329e-22 0.00000000e+00)
2.5             	bot_wall	(-1.20458115e-01 1.31995308e-18 0.00000000e+00)	(-1.20458115e-01 1.31995308e-18 0.00000000e+00)
3               	top_wall	(-1.17896215e-01 -5.53906306e-22 0.00000000e+00)	(-1.17896215e-01 -5.53906306e-22 0.00000000e+00)
3               	bot_wall	(-1.17896308e-01 1.40457364e-18 0.00000000e+00)	(-1.17896308e-01 1.40457364e-18 0.00000000e+00)
3.5             	top_wall	(-1.15799700e-01 3.59832900e-22 0.00000000e+00)	(-1.15799700e-01 3.59832900e-22 0.00000000e+00)
3.5             	bot_wall	(-1.15799785e-01 1.54191270e-18 0.00000000e+00)	(-1.15799785e-01 1.54191270e-18 0.00000000e+00)
4               	top_wall	(-1.14031091e-01 -5.35667307e-22 0.00000000e+00)	(-1.14031091e-01 -5.35667307e-22 0.00000000e+00)
4               	bot_wall	(-1.14031169e-01 1.28905057e-18 0.00000000e+00)	(-1.14031169e-01 1.28905057e-18 0.00000000e+00)
4.5             	top_wall	(-1.12495813e-01 -3.56633677e-22 0.00000000e+00)	(-1.12495813e-01 -3.56633677e-22 0.00000000e+00)
4.5             	bot_wall	(-1.12495884e-01 1.53621193e-18 0.00000000e+00)	(-1.12495884e-01 1.53621193e-18 0.00000000e+00)
5               	top_wall	(-1.11119321e-01 -6.34310784e-22 0.00000000e+00)	(-1.11119321e-01 -6.34310784e-22 0.00000000e+00)
5               	bot_wall	(-1.11119386e-01 1.54022950e-18 0.00000000e+00)	(-1.11119386e-01 1.54022950e-18 0.00000000e+00)
5.5             	top_wall	(-1.09854013e-01 -9.32857786e-22 0.00000000e+00)	(-1.09854013e-01 -9.32857786e-22 0.00000000e+00)
5.5             	bot_wall	(-1.09854073e-01 1.30969063e-18 0.00000000e+00)	(-1.09854073e-01 1.30969063e-18 0.00000000e+00)
6               	top_wall	(-1.08700123e-01 -8.10826602e-22 0.00000000e+00)	(-1.08700123e-01 -8.10826602e-22 0.00000000e+00)
6               	bot_wall	(-1.08700178e-01 1.22391828e-18 0.00000000e+00)	(-1.08700178e-01 1.22391828e-18 0.00000000e+00)
6.5             	top_wall	(-1.07671750e-01 1.01329889e-21 0.00000000e+00)	(-1.07671750e-01 1.01329889e-21 0.00000000e+00)
6.5             	bot_wall	(-1.07671801e-01 1.48141537e-18 0.00000000e+00)	(-1.07671801e-01 1.48141537e-18 0.00000000e+00)
7               	top_wall	(-1.06760120e-01 -3.84052963e-22 0.00000000e+00)	(-1.06760120e-01 -3.84052963e-22 0.00000000e+00)
7               	bot_wall	(-1.06760168e-01 1.61990034e-18 0.00000000e+00)	(-1.06760168e-01 1.61990034e-18 0.00000000e+00)
7.5             	top_wall	(-1.05947721e-01 -8.21297412e-22 0.00000000e+00)	(-1.05947721e-01 -8.21297412e-22 0.00000000e+00)
7.5             	bot_wall	(-1.05947767e-01 1.03927678e-18 0.00000000e+00)	(-1.05947767e-01 1.03927678e-18 0.00000000e+00)
8               	top_wall	(-1.05219968e-01 -8.48433339e-23 0.00000000e+00)	(-1.05219968e-01 -8.48433339e-23 0.00000000e+00)
8               	bot_wall	(-1.05220011e-01 1.62384831e-18 0.00000000e+00)	(-1.05220011e-01 1.62384831e-18 0.00000000e+00)
8.5             	top_wall	(-1.04566431e-01 -1.30439580e-22 0.00000000e+00)	(-1.04566431e-01 -1.30439580e-22 0.00000000e+00)
8.5             	bot_wall	(-1.04566471e-01 1.40216867e-18 0.00000000e+00)	(-1.04566471e-01 1.40216867e-18 0.00000000e+00)
9               	top_wall	(-1.03979856e-01 4.06050276e-22 0.00000000e+00)	(-1.03979856e-01 4.06050276e-22 0.00000000e+00)
9               	bot_wall	(-1.03979895e-01 1.18472173e-18 0.00000000e+00)	(-1.03979895e-01 1.18472173e-18 0.00000000e+00)
9.5             	top_wall	(-1.03455263e-01 -6.16122084e-23 0.00000000e+00)	(-1.03455263e-01 -6.16122084e-23 0.00000000e+00)
9.5             	bot_wall	(-1.03455300e-01 1.45856374e-18 0.00000000e+00)	(-1.03455300e-01 1.45856374e-18 0.00000000e+00)
10              	top_wall	(-1.02989312e-01 -5.89059539e-22 0.00000000e+00)	(-1.02989312e-01 -5.89059539e-22 0.00000000e+00)
10              	bot_wall	(-1.02989347e-01 1.27999358e-18 0.00000000e+00)	(-1.02989347e-01 1.27999358e-18 0.00000000e+00)
10.5            	top_wall	(-1.02579896e-01 -5.43686515e-22 0.00000000e+00)	(-1.02579896e-01 -5.43686515e-22 0.00000000e+00)
10.5            	bot_wall	(-1.02579930e-01 1.34972819e-18 0.00000000e+00)	(-1.02579930e-01 1.34972819e-18 0.00000000e+00)
11              	top_wall	(-1.02225877e-01 3.27828975e-22 0.00000000e+00)	(-1.02225877e-01 3.27828975e-22 0.00000000e+00)
11              	bot_wall	(-1.02225909e-01 1.61246286e-18 0.00000000e+00)	(-1.02225909e-01 1.61246286e-18 0.00000000e+00)
11.5            	top_wall	(-1.01926895e-01 -2.28807991e-22 0.00000000e+00)	(-1.01926895e-01 -2.28807991e-22 0.00000000e+00)
11.5            	bot_wall	(-1.01926925e-01 1.53021117e-18 0.00000000e+00)	(-1.01926925e-01 1.53021117e-18 0.00000000e+00)
12              	top_wall	(-1.01683105e-01 -2.78180688e-22 0.00000000e+00)	(-1.01683105e-01 -2.78180688e-22 0.00000000e+00)
12              	bot_wall	(-1.01683135e-01 1.48730348e-18 0.00000000e+00)	(-1.01683135e-01 1.48730348e-18 0.00000000e+00)
12.5            	top_wall	(-1.01494698e-01 5.13622953e-23 0.00000000e+00)	(-1.01494698e-01 5.13622953e-23 0.00000000e+00)
12.5            	bot_wall	(-1.01494726e-01 1.37573073e-18 0.00000000e+00)	(-1.01494726e-01 1.37573073e-18 0.00000000e+00)
13              	top_wall	(-1.01361208e-01 -4.77090577e-22 0.00000000e+00)	(-1.01361208e-01 -4.77090577e-22 0.00000000e+00)
13              	bot_wall	(-1.01361235e-01 1.24132350e-18 0.00000000e+00)	(-1.01361235e-01 1.24132350e-18 0.00000000e+00)
13.5            	top_wall	(-1.01280878e-01 7.46736768e-22 0.00000000e+00)	(-1.01280878e-01 7.46736768e-22 0.00000000e+00)
13.5            	bot_wall	(-1.01280904e-01 8.33108854e-19 0.00000000e+00)	(-1.01280904e-01 8.33108854e-19 0.00000000e+00)
14              	top_wall	(-1.01250486e-01 -6.88634451e-22 0.00000000e+00)	(-1.01250486e-01 -6.88634451e-22 0.00000000e+00)
14              	bot_wall	(-1.01250512e-01 1.55976633e-18 0.00000000e+00)	(-1.01250512e-01 1.55976633e-18 0.00000000e+00)
14.5            	top_wall	(-1.01265733e-01 2.16802483e-22 0.00000000e+00)	(-1.01265733e-01 2.16802483e-22 0.00000000e+00)
14.5            	bot_wall	(-1.01265757e-01 1.08082005e-18 0.00000000e+00)	(-1.01265757e-01 1.08082005e-18 0.00000000e+00)
15              	top_wall	(-1.01321884e-01 2.99812418e-22 0.00000000e+00)	(-1.01321884e-01 2.99812418e-22 0.00000000e+00)
15              	bot_wall	(-1.01321907e-01 1.06735206e-18 0.00000000e+00)	(-1.01321907e-01 1.06735206e-18 0.00000000e+00)
15.5            	top_wall	(-1.01414304e-01 -1.68240896e-22 0.00000000e+00)	(-1.01414304e-01 -1.68240896e-22 0.00000000e+00)
15.5            	bot_wall	(-1.01414326e-01 8.76629291e-19 0.00000000e+00)	(-1.01414326e-01 8.76629291e-19 0.00000000e+00)
16              	top_wall	(-1.01538717e-01 -1.98177096e-22 0.00000000e+00)	(-1.01538717e-01 -1.98177096e-22 0.00000000e+00)
16              	bot_wall	(-1.01538738e-01 1.08616343e-18 0.00000000e+00)	(-1.01538738e-01 1.08616343e-18 0.00000000e+00)
16.5            	top_wall	(-1.01691255e-01 -3.75152184e-22 0.00000000e+00)	(-1.01691255e-01 -3.75152184e-22 0.00000000e+00)
16.5            	bot_wall	(-1.01691275e-01 7.53022094e-19 0.00000000e+00)	(-1.01691275e-01 7.53022094e-19 0.00000000e+00)
17              	top_wall	(-1.01868394e-01 5.11534134e-22 0.00000000e+00)	(-1.01868394e-01 5.11534134e-22 0.00000000e+00)
17              	bot_wall	(-1.01868414e-01 1.51906042e-18 0.00000000e+00)	(-1.01868414e-01 1.51906042e-18 0.00000000e+00)
17.5            	top_wall	(-1.02066878e-01 1.00696435e-21 0.00000000e+00)	(-1.02066878e-01 1.00696435e-21 0.00000000e+00)
17.5            	bot_wall	(-1.02066897e-01 1.01883691e-18 0.00000000e+00)	(-1.02066897e-01 1.01883691e-18 0.00000000e+00)
18              	top_wall	(-1.02283665e-01 1.13353910e-21 0.00000000e+00)	(-1.02283665e-01 1.13353910e-21 0.00000000e+00)
18              	bot_wall	(-1.02283683e-01 1.42000114e-18 0.00000000e+00)	(-1.02283683e-01 1.42000114e-18 0.00000000e+00)
18.5            	top_wall	(-1.02515795e-01 -1.54759187e-21 0.00000000e+00)	(-1.02515795e-01 -1.54759187e-21 0.00000000e+00)
18.5            	bot_wall	(-1.02515812e-01 1.43909535e-18 0.00000000e+00)	(-1.02515812e-01 1.43909535e-18 0.00000000e+00)
19              	top_wall	(-1.02760417e-01 -1.01823183e-21 0.00000000e+00)	(-1.02760417e-01 -1.01823183e-21 0.00000000e+00)
19              	bot_wall	(-1.02760434e-01 1.21571894e-18 0.00000000e+00)	(-1.02760434e-01 1.21571894e-18 0.00000000e+00)
19.5            	top_wall	(-1.03014790e-01 -1.40286516e-21 0.00000000e+00)	(-1.03014790e-01 -1.40286516e-21 0.00000000e+00)
19.5            	bot_wall	(-1.03014807e-01 9.95569108e-19 0.00000000e+00)	(-1.03014807e-01 9.95569108e-19 0.00000000e+00)
20              	top_wall	(-1.03276309e-01 -8.14622608e-22 0.00000000e+00)	(-1.03276309e-01 -8.14622608e-22 0.00000000e+00)
20              	bot_wall	(-1.03276325e-01 1.04662989e-18 0.00000000e+00)	(-1.03276325e-01 1.04662989e-18 0.00000000e+00)
20.5            	top_wall	(-1.03542505e-01 9.74578510e-22 0.00000000e+00)	(-1.03542505e-01 9.74578510e-22 0.00000000e+00)
20.5            	bot_wall	(-1.03542521e-01 1.06257935e-18 0.00000000e+00)	(-1.03542521e-01 1.06257935e-18 0.00000000e+00)
21              	top_wall	(-1.03811097e-01 -6.08891992e-22 0.00000000e+00)	(-1.03811097e-01 -6.08891992e-22 0.00000000e+00)
21              	bot_wall	(-1.03811112e-01 1.11637177e-18 0.00000000e+00)	(-1.03811112e-01 1.11637177e-18 0.00000000e+00)
21.5            	top_wall	(-1.04079986e-01 2.88974837e-22 0.00000000e+00)	(-1.04079986e-01 2.88974837e-22 0.00000000e+00)
21.5            	bot_wall	(-1.04080000e-01 1.07997907e-18 0.00000000e+00)	(-1.04080000e-01 1.07997907e-18 0.00000000e+00)
22              	top_wall	(-1.04347288e-01 4.92032377e-23 0.00000000e+00)	(-1.04347288e-01 4.92032377e-23 0.00000000e+00)
22              	bot_wall	(-1.04347302e-01 1.55714596e-18 0.00000000e+00)	(-1.04347302e-01 1.55714596e-18 0.00000000e+00)
22.5            	top_wall	(-1.04611343e-01 2.19865458e-21 0.00000000e+00)	(-1.04611343e-01 2.19865458e-21 0.00000000e+00)
22.5            	bot_wall	(-1.04611357e-01 1.41889431e-18 0.00000000e+00)	(-1.04611357e-01 1.41889431e-18 0.00000000e+00)
23              	top_wall	(-1.04870721e-01 -3.35824116e-22 0.00000000e+00)	(-1.04870721e-01 -3.35824116e-22 0.00000000e+00)
23              	bot_wall	(-1.04870734e-01 1.44123602e-18 0.00000000e+00)	(-1.04870734e-01 1.44123602e-18 0.00000000e+00)
23.5            	top_wall	(-1.05124179e-01 5.25064551e-24 0.00000000e+00)	(-1.05124179e-01 5.25064551e-24 0.00000000e+00)
23.5            	bot_wall	(-1.05124192e-01 1.54101681e-18 0.00000000e+00)	(-1.05124192e-01 1.54101681e-18 0.00000000e+00)
24              	top_wall	(-1.05370696e-01 7.83216470e-22 0.00000000e+00)	(-1.05370696e-01 7.83216470e-22 0.00000000e+00)
24              	bot_wall	(-1.05370708e-01 1.67653365e-18 0.00000000e+00)	(-1.05370708e-01 1.67653365e-18 0.00000000e+00)
24.5            	top_wall	(-1.05609443e-01 3.57768326e-21 0.00000000e+00)	(-1.05609443e-01 3.57768326e-21 0.00000000e+00)
24.5            	bot_wall	(-1.05609455e-01 1.54561182e-18 0.00000000e+00)	(-1.05609455e-01 1.54561182e-18 0.00000000e+00)
