/*--------------------------------*- C++ -*----------------------------------*\
| =========                 |                                                 |
| \\      /  F ield         | OpenFOAM: The Open Source CFD Toolbox           |
|  \\    /   O peration     | Version:  2312                                  |
|   \\  /    A nd           | Website:  www.openfoam.com                      |
|    \\/     M anipulation  |                                                 |
\*---------------------------------------------------------------------------*/
FoamFile
{
    version     2.0;
    format      ascii;
    arch        "LSB;label=32;scalar=64";
    class       volVectorField;
    location    "100";
    object      U;
}
// * * * * * * * * * * * * * * * * * * * * * * * * * * * * * * * * * * * * * //

dimensions      [0 1 -1 0 0 0 0];

internalField   nonuniform List<vector> 
1000
(
(0.177004 -1.89665e-17 0)
(0.530303 -3.41849e-17 0)
(0.882894 -3.58566e-17 0)
(1.23478 -3.34518e-17 0)
(1.58595 -3.2955e-17 0)
(1.93642 -3.3101e-17 0)
(2.28618 -3.3203e-17 0)
(2.63523 -3.32157e-17 0)
(2.98357 -3.32098e-17 0)
(3.33121 -3.32087e-17 0)
(3.67814 -3.3204e-17 0)
(4.02436 -3.31918e-17 0)
(4.36987 -3.31753e-17 0)
(4.71467 -3.31607e-17 0)
(5.05876 -3.31472e-17 0)
(5.40215 -3.31363e-17 0)
(5.74483 -3.31308e-17 0)
(6.0868 -3.31302e-17 0)
(6.42806 -3.31312e-17 0)
(6.76862 -3.31402e-17 0)
(7.10847 -3.31738e-17 0)
(7.44761 -3.32142e-17 0)
(7.78604 -3.32475e-17 0)
(8.12376 -3.3306e-17 0)
(8.46077 -3.33353e-17 0)
(8.79708 -3.33348e-17 0)
(9.13268 -3.33542e-17 0)
(9.46757 -3.33818e-17 0)
(9.80175 -3.3416e-17 0)
(10.1352 -3.34496e-17 0)
(10.468 -3.3479e-17 0)
(10.8001 -3.35067e-17 0)
(11.1314 -3.35291e-17 0)
(11.462 -3.35531e-17 0)
(11.792 -3.35785e-17 0)
(12.1212 -3.35953e-17 0)
(12.4497 -3.36265e-17 0)
(12.7775 -3.36599e-17 0)
(13.1046 -3.36959e-17 0)
(13.431 -3.37283e-17 0)
(13.7567 -3.37443e-17 0)
(14.0817 -3.37586e-17 0)
(14.406 -3.37684e-17 0)
(14.7295 -3.37748e-17 0)
(15.0524 -3.37784e-17 0)
(15.3745 -3.378e-17 0)
(15.696 -3.37801e-17 0)
(16.0167 -3.37793e-17 0)
(16.3367 -3.37779e-17 0)
(16.656 -3.37763e-17 0)
(16.9746 -3.37745e-17 0)
(17.2925 -3.37728e-17 0)
(17.6097 -3.37712e-17 0)
(17.9262 -3.37698e-17 0)
(18.242 -3.37686e-17 0)
(18.557 -3.37677e-17 0)
(18.8714 -3.3767e-17 0)
(19.1851 -3.37665e-17 0)
(19.498 -3.37661e-17 0)
(19.8102 -3.37659e-17 0)
(20.1218 -3.37658e-17 0)
(20.4326 -3.37658e-17 0)
(20.7427 -3.37658e-17 0)
(21.0521 -3.37658e-17 0)
(21.3608 -3.37659e-17 0)
(21.6688 -3.37659e-17 0)
(21.976 -3.37659e-17 0)
(22.2826 -3.37659e-17 0)
(22.5885 -3.37657e-17 0)
(22.8936 -3.37655e-17 0)
(23.1981 -3.37651e-17 0)
(23.5018 -3.37646e-17 0)
(23.8048 -3.37639e-17 0)
(24.1072 -3.37631e-17 0)
(24.4088 -3.3762e-17 0)
(24.7097 -3.37607e-17 0)
(25.0099 -3.37592e-17 0)
(25.3094 -3.37573e-17 0)
(25.6081 -3.37551e-17 0)
(25.9062 -3.37524e-17 0)
(26.2036 -3.37494e-17 0)
(26.5002 -3.37459e-17 0)
(26.7962 -3.37418e-17 0)
(27.0914 -3.37372e-17 0)
(27.3859 -3.37319e-17 0)
(27.6798 -3.37259e-17 0)
(27.9729 -3.37192e-17 0)
(28.2653 -3.37116e-17 0)
(28.557 -3.37032e-17 0)
(28.848 -3.36938e-17 0)
(29.1383 -3.36833e-17 0)
(29.4278 -3.36719e-17 0)
(29.7167 -3.36593e-17 0)
(30.0049 -3.36457e-17 0)
(30.2923 -3.3631e-17 0)
(30.5791 -3.36152e-17 0)
(30.8651 -3.35984e-17 0)
(31.1504 -3.35807e-17 0)
(31.435 -3.35623e-17 0)
(31.719 -3.35434e-17 0)
(32.0022 -3.35242e-17 0)
(32.2847 -3.3505e-17 0)
(32.5664 -3.34861e-17 0)
(32.8475 -3.34678e-17 0)
(33.1279 -3.34504e-17 0)
(33.4076 -3.34342e-17 0)
(33.6865 -3.34229e-17 0)
(33.9648 -3.33593e-17 0)
(34.2423 -3.31824e-17 0)
(34.5191 -3.30058e-17 0)
(34.7952 -3.29451e-17 0)
(35.0707 -3.29405e-17 0)
(35.3454 -3.2922e-17 0)
(35.6194 -3.28947e-17 0)
(35.8927 -3.28711e-17 0)
(36.1652 -3.28499e-17 0)
(36.4371 -3.28335e-17 0)
(36.7083 -3.28237e-17 0)
(36.9787 -3.28272e-17 0)
(37.2485 -3.27979e-17 0)
(37.5175 -3.2792e-17 0)
(37.7859 -3.27985e-17 0)
(38.0535 -3.27955e-17 0)
(38.3204 -3.28268e-17 0)
(38.5866 -3.28462e-17 0)
(38.8521 -3.28603e-17 0)
(39.1169 -3.2872e-17 0)
(39.381 -3.28822e-17 0)
(39.6444 -3.28905e-17 0)
(39.907 -3.28964e-17 0)
(40.169 -3.29038e-17 0)
(40.4303 -3.28538e-17 0)
(40.6908 -3.26361e-17 0)
(40.9506 -3.24265e-17 0)
(41.2098 -3.24054e-17 0)
(41.4682 -3.24543e-17 0)
(41.7259 -3.24344e-17 0)
(41.9829 -3.23621e-17 0)
(42.2392 -3.22894e-17 0)
(42.4948 -3.22715e-17 0)
(42.7497 -3.23163e-17 0)
(43.0038 -3.22538e-17 0)
(43.2573 -3.20949e-17 0)
(43.5101 -3.19228e-17 0)
(43.7621 -3.18107e-17 0)
(44.0134 -3.17758e-17 0)
(44.2641 -3.17407e-17 0)
(44.514 -3.17129e-17 0)
(44.7632 -3.1666e-17 0)
(45.0117 -3.15265e-17 0)
(45.2595 -3.13966e-17 0)
(45.5066 -3.13679e-17 0)
(45.753 -3.13674e-17 0)
(45.9987 -3.13691e-17 0)
(46.2436 -3.13755e-17 0)
(46.4879 -3.13863e-17 0)
(46.7315 -3.14075e-17 0)
(46.9743 -3.13641e-17 0)
(47.2164 -3.12885e-17 0)
(47.4579 -3.1143e-17 0)
(47.6986 -3.10262e-17 0)
(47.9386 -3.09097e-17 0)
(48.1779 -3.06331e-17 0)
(48.4165 -3.04049e-17 0)
(48.6544 -3.02462e-17 0)
(48.8916 -3.00847e-17 0)
(49.128 -2.98778e-17 0)
(49.3638 -2.99869e-17 0)
(49.5988 -3.01882e-17 0)
(49.8332 -3.00651e-17 0)
(50.0668 -2.98872e-17 0)
(50.2998 -2.96158e-17 0)
(50.532 -2.93604e-17 0)
(50.7635 -2.91791e-17 0)
(50.9943 -2.89639e-17 0)
(51.2244 -2.87665e-17 0)
(51.4538 -2.84835e-17 0)
(51.6825 -2.81891e-17 0)
(51.9104 -2.78854e-17 0)
(52.1377 -2.7394e-17 0)
(52.3643 -2.69813e-17 0)
(52.5901 -2.67327e-17 0)
(52.8153 -2.65098e-17 0)
(53.0397 -2.61979e-17 0)
(53.2634 -2.5867e-17 0)
(53.4864 -2.55946e-17 0)
(53.7087 -2.52918e-17 0)
(53.9303 -2.49902e-17 0)
(54.1512 -2.46083e-17 0)
(54.3714 -2.423e-17 0)
(54.5909 -2.38741e-17 0)
(54.8097 -2.38452e-17 0)
(55.0277 -2.39305e-17 0)
(55.2451 -2.37759e-17 0)
(55.4617 -2.35073e-17 0)
(55.6777 -2.3201e-17 0)
(55.8929 -2.311e-17 0)
(56.1074 -2.31676e-17 0)
(56.3212 -2.32754e-17 0)
(56.5343 -2.31529e-17 0)
(56.7467 -2.29338e-17 0)
(56.9584 -2.28941e-17 0)
(57.1694 -2.2884e-17 0)
(57.3797 -2.28654e-17 0)
(57.5892 -2.28127e-17 0)
(57.7981 -2.26674e-17 0)
(58.0062 -2.25154e-17 0)
(58.2137 -2.23565e-17 0)
(58.4204 -2.21688e-17 0)
(58.6264 -2.19815e-17 0)
(58.8317 -2.17433e-17 0)
(59.0363 -2.14887e-17 0)
(59.2402 -2.12716e-17 0)
(59.4434 -2.11465e-17 0)
(59.6459 -2.10808e-17 0)
(59.8477 -2.10403e-17 0)
(60.0488 -2.09891e-17 0)
(60.2491 -2.08448e-17 0)
(60.4488 -2.06829e-17 0)
(60.6477 -2.06085e-17 0)
(60.8459 -2.05951e-17 0)
(61.0435 -2.05784e-17 0)
(61.2403 -2.04795e-17 0)
(61.4364 -2.03583e-17 0)
(61.6318 -2.02247e-17 0)
(61.8265 -1.99095e-17 0)
(62.0205 -1.96707e-17 0)
(62.2138 -1.9652e-17 0)
(62.4063 -1.9587e-17 0)
(62.5982 -1.93803e-17 0)
(62.7893 -1.91421e-17 0)
(62.9798 -1.90265e-17 0)
(63.1695 -1.89893e-17 0)
(63.3586 -1.89046e-17 0)
(63.5469 -1.86923e-17 0)
(63.7345 -1.84478e-17 0)
(63.9214 -1.82916e-17 0)
(64.1076 -1.81672e-17 0)
(64.2931 -1.79481e-17 0)
(64.4779 -1.76028e-17 0)
(64.6619 -1.72339e-17 0)
(64.8453 -1.68348e-17 0)
(65.028 -1.63977e-17 0)
(65.2099 -1.60721e-17 0)
(65.3912 -1.58647e-17 0)
(65.5717 -1.56095e-17 0)
(65.7515 -1.52704e-17 0)
(65.9306 -1.48863e-17 0)
(66.109 -1.44879e-17 0)
(66.2867 -1.41913e-17 0)
(66.4637 -1.40075e-17 0)
(66.64 -1.37973e-17 0)
(66.8156 -1.31588e-17 0)
(66.9905 -1.22614e-17 0)
(67.1646 -1.15691e-17 0)
(67.3381 -1.11571e-17 0)
(67.5108 -1.09246e-17 0)
(67.6829 -1.04729e-17 0)
(67.8542 -9.94021e-18 0)
(68.0248 -9.64937e-18 0)
(68.1947 -9.40481e-18 0)
(68.3639 -9.10328e-18 0)
(68.5324 -8.79878e-18 0)
(68.7002 -8.18732e-18 0)
(68.8673 -7.40938e-18 0)
(69.0337 -6.98648e-18 0)
(69.1993 -6.81342e-18 0)
(69.3643 -6.18335e-18 0)
(69.5285 -5.26437e-18 0)
(69.6921 -4.64677e-18 0)
(69.8549 -4.2102e-18 0)
(70.017 -3.84459e-18 0)
(70.1785 -3.45835e-18 0)
(70.3392 -2.96256e-18 0)
(70.4992 -2.3597e-18 0)
(70.6585 -1.77162e-18 0)
(70.817 -1.50985e-18 0)
(70.9749 -1.36277e-18 0)
(71.1321 -1.05566e-18 0)
(71.2885 -8.87782e-19 0)
(71.4443 -5.71103e-19 0)
(71.5993 -2.55448e-19 0)
(71.7537 -7.86273e-20 0)
(71.9073 2.44076e-19 0)
(72.0602 4.93941e-19 0)
(72.2124 8.26917e-19 0)
(72.3639 1.29325e-18 0)
(72.5147 1.73591e-18 0)
(72.6648 2.17568e-18 0)
(72.8142 2.4736e-18 0)
(72.9629 2.62265e-18 0)
(73.1108 2.65922e-18 0)
(73.2581 2.86795e-18 0)
(73.4046 3.15121e-18 0)
(73.5505 3.25394e-18 0)
(73.6956 3.34211e-18 0)
(73.84 3.49961e-18 0)
(73.9838 3.74105e-18 0)
(74.1268 3.95016e-18 0)
(74.2691 4.16547e-18 0)
(74.4107 4.39295e-18 0)
(74.5515 4.53954e-18 0)
(74.6917 4.61982e-18 0)
(74.8312 4.84861e-18 0)
(74.9699 5.21276e-18 0)
(75.108 5.35087e-18 0)
(75.2453 5.33482e-18 0)
(75.382 5.39306e-18 0)
(75.5179 5.62473e-18 0)
(75.6531 6.21392e-18 0)
(75.7876 6.86667e-18 0)
(75.9214 7.3433e-18 0)
(76.0545 7.58526e-18 0)
(76.1869 7.54121e-18 0)
(76.3186 7.40848e-18 0)
(76.4496 7.31256e-18 0)
(76.5798 7.24173e-18 0)
(76.7094 7.16986e-18 0)
(76.8382 7.0984e-18 0)
(76.9664 7.02662e-18 0)
(77.0938 6.95492e-18 0)
(77.2205 6.88307e-18 0)
(77.3465 6.8117e-18 0)
(77.4719 6.7414e-18 0)
(77.5965 6.67193e-18 0)
(77.7203 6.60377e-18 0)
(77.8435 6.53726e-18 0)
(77.966 6.47264e-18 0)
(78.0878 6.41005e-18 0)
(78.2088 6.34955e-18 0)
(78.3292 6.29114e-18 0)
(78.4488 6.23477e-18 0)
(78.5678 6.18035e-18 0)
(78.686 6.12779e-18 0)
(78.8035 6.07697e-18 0)
(78.9203 6.02776e-18 0)
(79.0364 5.98005e-18 0)
(79.1518 5.93372e-18 0)
(79.2665 5.88859e-18 0)
(79.3805 5.84534e-18 0)
(79.4938 5.80387e-18 0)
(79.6063 5.76329e-18 0)
(79.7182 5.72353e-18 0)
(79.8293 5.68529e-18 0)
(79.9398 5.64846e-18 0)
(80.0495 5.61294e-18 0)
(80.1585 5.57864e-18 0)
(80.2668 5.54548e-18 0)
(80.3744 5.51343e-18 0)
(80.4813 5.48242e-18 0)
(80.5875 5.45243e-18 0)
(80.693 5.42343e-18 0)
(80.7978 5.39539e-18 0)
(80.9019 5.36829e-18 0)
(81.0052 5.34212e-18 0)
(81.1079 5.31687e-18 0)
(81.2098 5.29253e-18 0)
(81.3111 5.26907e-18 0)
(81.4116 5.2465e-18 0)
(81.5114 5.22479e-18 0)
(81.6105 5.20395e-18 0)
(81.7089 5.18395e-18 0)
(81.8066 5.16478e-18 0)
(81.9036 5.14644e-18 0)
(81.9999 5.12891e-18 0)
(82.0955 5.11218e-18 0)
(82.1903 5.09622e-18 0)
(82.2845 5.08104e-18 0)
(82.3779 5.06661e-18 0)
(82.4707 5.05293e-18 0)
(82.5627 5.03997e-18 0)
(82.654 5.02772e-18 0)
(82.7446 5.01617e-18 0)
(82.8345 5.0053e-18 0)
(82.9237 4.9951e-18 0)
(83.0122 4.98556e-18 0)
(83.1 4.97666e-18 0)
(83.1871 4.96838e-18 0)
(83.2735 4.96072e-18 0)
(83.3591 4.95366e-18 0)
(83.4441 4.94719e-18 0)
(83.5283 4.9413e-18 0)
(83.6119 4.93596e-18 0)
(83.6947 4.93118e-18 0)
(83.7768 4.92693e-18 0)
(83.8582 4.92321e-18 0)
(83.9389 4.92001e-18 0)
(84.0189 4.91731e-18 0)
(84.0982 4.9151e-18 0)
(84.1768 4.91337e-18 0)
(84.2547 4.91212e-18 0)
(84.3318 4.91133e-18 0)
(84.4083 4.91099e-18 0)
(84.484 4.91109e-18 0)
(84.5591 4.91162e-18 0)
(84.6334 4.91258e-18 0)
(84.707 4.91394e-18 0)
(84.78 4.91571e-18 0)
(84.8522 4.91788e-18 0)
(84.9237 4.92043e-18 0)
(84.9945 4.92336e-18 0)
(85.0645 4.92666e-18 0)
(85.1339 4.93031e-18 0)
(85.2026 4.93432e-18 0)
(85.2706 4.93868e-18 0)
(85.3378 4.94337e-18 0)
(85.4043 4.94839e-18 0)
(85.4702 4.95373e-18 0)
(85.5353 4.95939e-18 0)
(85.5997 4.96535e-18 0)
(85.6635 4.97161e-18 0)
(85.7265 4.97817e-18 0)
(85.7888 4.98501e-18 0)
(85.8503 4.99214e-18 0)
(85.9112 4.99953e-18 0)
(85.9714 5.0072e-18 0)
(86.0309 5.01513e-18 0)
(86.0896 5.02331e-18 0)
(86.1477 5.03174e-18 0)
(86.205 5.04042e-18 0)
(86.2617 5.04934e-18 0)
(86.3176 5.05849e-18 0)
(86.3728 5.06787e-18 0)
(86.4273 5.07747e-18 0)
(86.4811 5.08729e-18 0)
(86.5342 5.09733e-18 0)
(86.5866 5.10758e-18 0)
(86.6383 5.11803e-18 0)
(86.6892 5.12868e-18 0)
(86.7395 5.13953e-18 0)
(86.7891 5.15058e-18 0)
(86.8379 5.16181e-18 0)
(86.886 5.17323e-18 0)
(86.9335 5.18483e-18 0)
(86.9802 5.19661e-18 0)
(87.0262 5.20856e-18 0)
(87.0715 5.22069e-18 0)
(87.1161 5.23298e-18 0)
(87.16 5.24545e-18 0)
(87.2032 5.25807e-18 0)
(87.2457 5.27085e-18 0)
(87.2874 5.2838e-18 0)
(87.3285 5.29689e-18 0)
(87.3689 5.31014e-18 0)
(87.4085 5.32355e-18 0)
(87.4474 5.33709e-18 0)
(87.4857 5.35079e-18 0)
(87.5232 5.36463e-18 0)
(87.56 5.37861e-18 0)
(87.5961 5.39273e-18 0)
(87.6315 5.40699e-18 0)
(87.6662 5.42139e-18 0)
(87.7002 5.43592e-18 0)
(87.7334 5.45059e-18 0)
(87.766 5.46539e-18 0)
(87.7979 5.48031e-18 0)
(87.829 5.49537e-18 0)
(87.8594 5.51056e-18 0)
(87.8892 5.52587e-18 0)
(87.9182 5.54131e-18 0)
(87.9465 5.55688e-18 0)
(87.9741 5.57257e-18 0)
(88.001 5.58838e-18 0)
(88.0272 5.60432e-18 0)
(88.0527 5.62038e-18 0)
(88.0775 5.63655e-18 0)
(88.1016 5.65285e-18 0)
(88.1249 5.66927e-18 0)
(88.1476 5.68581e-18 0)
(88.1695 5.70246e-18 0)
(88.1908 5.71923e-18 0)
(88.2113 5.73612e-18 0)
(88.2311 5.75313e-18 0)
(88.2502 5.77025e-18 0)
(88.2686 5.78749e-18 0)
(88.2863 5.80485e-18 0)
(88.3033 5.82232e-18 0)
(88.3196 5.8399e-18 0)
(88.3352 5.8576e-18 0)
(88.35 5.87542e-18 0)
(88.3642 5.89335e-18 0)
(88.3776 5.91139e-18 0)
(88.3904 5.92955e-18 0)
(88.4024 5.94783e-18 0)
(88.4138 5.96621e-18 0)
(88.4244 5.98472e-18 0)
(88.4343 6.00335e-18 0)
(88.4435 6.02205e-18 0)
(88.452 6.04081e-18 0)
(88.4598 6.05965e-18 0)
(88.4668 6.07855e-18 0)
(88.4732 6.09755e-18 0)
(88.4789 6.11666e-18 0)
(88.4838 6.13587e-18 0)
(88.4881 6.15516e-18 0)
(88.4916 6.17453e-18 0)
(88.4945 6.19399e-18 0)
(88.4966 6.21352e-18 0)
(88.498 6.23313e-18 0)
(88.4987 6.25283e-18 0)
(88.4987 6.27261e-18 0)
(88.498 6.29246e-18 0)
(88.4966 6.3124e-18 0)
(88.4945 6.33242e-18 0)
(88.4916 6.35252e-18 0)
(88.4881 6.37269e-18 0)
(88.4838 6.39294e-18 0)
(88.4789 6.41327e-18 0)
(88.4732 6.43368e-18 0)
(88.4668 6.4542e-18 0)
(88.4598 6.47481e-18 0)
(88.452 6.49548e-18 0)
(88.4435 6.5162e-18 0)
(88.4343 6.53699e-18 0)
(88.4244 6.55783e-18 0)
(88.4138 6.57877e-18 0)
(88.4024 6.59982e-18 0)
(88.3904 6.62096e-18 0)
(88.3776 6.64221e-18 0)
(88.3642 6.66354e-18 0)
(88.35 6.68496e-18 0)
(88.3352 6.70648e-18 0)
(88.3196 6.72808e-18 0)
(88.3033 6.74976e-18 0)
(88.2863 6.77153e-18 0)
(88.2686 6.79338e-18 0)
(88.2502 6.81531e-18 0)
(88.2311 6.83731e-18 0)
(88.2113 6.85939e-18 0)
(88.1908 6.88153e-18 0)
(88.1695 6.90374e-18 0)
(88.1476 6.92602e-18 0)
(88.1249 6.94835e-18 0)
(88.1016 6.97075e-18 0)
(88.0775 6.99319e-18 0)
(88.0527 7.01569e-18 0)
(88.0272 7.03822e-18 0)
(88.001 7.0608e-18 0)
(87.9741 7.08342e-18 0)
(87.9465 7.10607e-18 0)
(87.9182 7.12874e-18 0)
(87.8892 7.15143e-18 0)
(87.8594 7.17414e-18 0)
(87.829 7.19685e-18 0)
(87.7979 7.21957e-18 0)
(87.766 7.24228e-18 0)
(87.7334 7.26498e-18 0)
(87.7002 7.28766e-18 0)
(87.6662 7.31031e-18 0)
(87.6315 7.33292e-18 0)
(87.5961 7.35549e-18 0)
(87.56 7.37799e-18 0)
(87.5232 7.40044e-18 0)
(87.4857 7.4228e-18 0)
(87.4474 7.44507e-18 0)
(87.4085 7.46725e-18 0)
(87.3689 7.4893e-18 0)
(87.3285 7.51123e-18 0)
(87.2874 7.53302e-18 0)
(87.2457 7.55464e-18 0)
(87.2032 7.5761e-18 0)
(87.16 7.59735e-18 0)
(87.1161 7.6184e-18 0)
(87.0715 7.63922e-18 0)
(87.0262 7.65979e-18 0)
(86.9802 7.68009e-18 0)
(86.9335 7.7001e-18 0)
(86.886 7.71979e-18 0)
(86.8379 7.73915e-18 0)
(86.7891 7.75814e-18 0)
(86.7395 7.77675e-18 0)
(86.6892 7.79495e-18 0)
(86.6383 7.81271e-18 0)
(86.5866 7.83e-18 0)
(86.5342 7.84681e-18 0)
(86.4811 7.8631e-18 0)
(86.4273 7.87886e-18 0)
(86.3728 7.89405e-18 0)
(86.3176 7.90867e-18 0)
(86.2617 7.9227e-18 0)
(86.205 7.93613e-18 0)
(86.1477 7.94891e-18 0)
(86.0896 7.96146e-18 0)
(86.0309 7.97334e-18 0)
(85.9714 7.98458e-18 0)
(85.9112 7.99516e-18 0)
(85.8503 8.00506e-18 0)
(85.7888 8.01463e-18 0)
(85.7265 8.02385e-18 0)
(85.6635 8.03276e-18 0)
(85.5997 8.04096e-18 0)
(85.5353 8.04854e-18 0)
(85.4702 8.05553e-18 0)
(85.4043 8.06195e-18 0)
(85.3378 8.06781e-18 0)
(85.2706 8.07316e-18 0)
(85.2026 8.07802e-18 0)
(85.1339 8.08245e-18 0)
(85.0645 8.0865e-18 0)
(84.9945 8.09023e-18 0)
(84.9237 8.09372e-18 0)
(84.8522 8.09708e-18 0)
(84.78 8.10041e-18 0)
(84.707 8.10386e-18 0)
(84.6334 8.1076e-18 0)
(84.5591 8.1118e-18 0)
(84.484 8.11671e-18 0)
(84.4083 8.12255e-18 0)
(84.3318 8.12918e-18 0)
(84.2547 8.13688e-18 0)
(84.1768 8.14592e-18 0)
(84.0982 8.15664e-18 0)
(84.0189 8.16894e-18 0)
(83.9389 8.1831e-18 0)
(83.8582 8.1994e-18 0)
(83.7768 8.21811e-18 0)
(83.6947 8.23947e-18 0)
(83.6119 8.26365e-18 0)
(83.5283 8.2907e-18 0)
(83.4441 8.31975e-18 0)
(83.3591 8.35058e-18 0)
(83.2735 8.38266e-18 0)
(83.1871 8.41509e-18 0)
(83.1 8.44638e-18 0)
(83.0122 8.47343e-18 0)
(82.9237 8.49286e-18 0)
(82.8345 8.49969e-18 0)
(82.7446 8.48592e-18 0)
(82.654 8.43858e-18 0)
(82.5627 8.36437e-18 0)
(82.4707 8.29198e-18 0)
(82.3779 8.16562e-18 0)
(82.2845 7.87943e-18 0)
(82.1903 7.59362e-18 0)
(82.0955 7.46839e-18 0)
(81.9999 7.39792e-18 0)
(81.9036 7.32642e-18 0)
(81.8066 7.28265e-18 0)
(81.7089 7.27248e-18 0)
(81.6105 7.28295e-18 0)
(81.5114 7.30686e-18 0)
(81.4116 7.33922e-18 0)
(81.3111 7.37576e-18 0)
(81.2098 7.41415e-18 0)
(81.1079 7.45285e-18 0)
(81.0052 7.49088e-18 0)
(80.9019 7.52765e-18 0)
(80.7978 7.56286e-18 0)
(80.693 7.59559e-18 0)
(80.5875 7.62594e-18 0)
(80.4813 7.65411e-18 0)
(80.3744 7.68034e-18 0)
(80.2668 7.7049e-18 0)
(80.1585 7.72811e-18 0)
(80.0495 7.74941e-18 0)
(79.9398 7.76989e-18 0)
(79.8293 7.78899e-18 0)
(79.7182 7.807e-18 0)
(79.6063 7.82417e-18 0)
(79.4938 7.84072e-18 0)
(79.3805 7.85688e-18 0)
(79.2665 7.8728e-18 0)
(79.1518 7.88863e-18 0)
(79.0364 7.90449e-18 0)
(78.9203 7.92047e-18 0)
(78.8035 7.93663e-18 0)
(78.686 7.95302e-18 0)
(78.5678 7.96964e-18 0)
(78.4488 7.9865e-18 0)
(78.3292 8.00356e-18 0)
(78.2088 8.02076e-18 0)
(78.0878 8.03802e-18 0)
(77.966 8.05524e-18 0)
(77.8435 8.07228e-18 0)
(77.7203 8.08897e-18 0)
(77.5965 8.10511e-18 0)
(77.4719 8.12047e-18 0)
(77.3465 8.13476e-18 0)
(77.2205 8.14768e-18 0)
(77.0938 8.15885e-18 0)
(76.9664 8.16872e-18 0)
(76.8382 8.17691e-18 0)
(76.7094 8.18297e-18 0)
(76.5798 8.1864e-18 0)
(76.4496 8.18666e-18 0)
(76.3186 8.18311e-18 0)
(76.1869 8.17503e-18 0)
(76.0545 8.1625e-18 0)
(75.9214 8.14469e-18 0)
(75.7876 8.12067e-18 0)
(75.6531 8.08938e-18 0)
(75.5179 8.05053e-18 0)
(75.382 8.00282e-18 0)
(75.2453 7.94485e-18 0)
(75.108 7.87584e-18 0)
(74.9699 7.794e-18 0)
(74.8312 7.6973e-18 0)
(74.6917 7.5842e-18 0)
(74.5515 7.45192e-18 0)
(74.4107 7.29703e-18 0)
(74.2691 7.11521e-18 0)
(74.1268 6.89979e-18 0)
(73.9838 6.91987e-18 0)
(73.84 7.11382e-18 0)
(73.6956 6.95776e-18 0)
(73.5505 6.5387e-18 0)
(73.4046 6.45808e-18 0)
(73.2581 6.71183e-18 0)
(73.1108 6.96876e-18 0)
(72.9629 6.9796e-18 0)
(72.8142 6.76399e-18 0)
(72.6648 6.59018e-18 0)
(72.5147 6.46524e-18 0)
(72.3639 6.30917e-18 0)
(72.2124 5.70351e-18 0)
(72.0602 5.13245e-18 0)
(71.9073 5.08061e-18 0)
(71.7537 5.13894e-18 0)
(71.5993 5.14873e-18 0)
(71.4443 4.70089e-18 0)
(71.2885 4.28337e-18 0)
(71.1321 4.35693e-18 0)
(70.9749 4.48123e-18 0)
(70.817 4.57913e-18 0)
(70.6585 4.65988e-18 0)
(70.4992 4.72749e-18 0)
(70.3392 4.78313e-18 0)
(70.1785 4.82718e-18 0)
(70.017 4.86131e-18 0)
(69.8549 4.88523e-18 0)
(69.6921 4.89857e-18 0)
(69.5285 4.90083e-18 0)
(69.3643 4.89138e-18 0)
(69.1993 4.86941e-18 0)
(69.0337 4.83376e-18 0)
(68.8673 4.78282e-18 0)
(68.7002 4.71429e-18 0)
(68.5324 4.62315e-18 0)
(68.3639 4.50454e-18 0)
(68.1947 4.35145e-18 0)
(68.0248 4.17594e-18 0)
(67.8542 3.99313e-18 0)
(67.6829 3.75218e-18 0)
(67.5108 3.7575e-18 0)
(67.3381 3.77922e-18 0)
(67.1646 3.5874e-18 0)
(66.9905 3.48645e-18 0)
(66.8156 3.42735e-18 0)
(66.64 3.40181e-18 0)
(66.4637 3.39841e-18 0)
(66.2867 3.4101e-18 0)
(66.109 3.43343e-18 0)
(65.9306 3.46475e-18 0)
(65.7515 3.50157e-18 0)
(65.5717 3.54054e-18 0)
(65.3912 3.58051e-18 0)
(65.2099 3.62073e-18 0)
(65.028 3.66068e-18 0)
(64.8453 3.70001e-18 0)
(64.6619 3.73851e-18 0)
(64.4779 3.77605e-18 0)
(64.2931 3.81255e-18 0)
(64.1076 3.84798e-18 0)
(63.9214 3.88232e-18 0)
(63.7345 3.91554e-18 0)
(63.5469 3.94766e-18 0)
(63.3586 3.97866e-18 0)
(63.1695 4.00855e-18 0)
(62.9798 4.03731e-18 0)
(62.7893 4.06494e-18 0)
(62.5982 4.09144e-18 0)
(62.4063 4.11677e-18 0)
(62.2138 4.14094e-18 0)
(62.0205 4.16391e-18 0)
(61.8265 4.18566e-18 0)
(61.6318 4.20615e-18 0)
(61.4364 4.22535e-18 0)
(61.2403 4.24322e-18 0)
(61.0435 4.2597e-18 0)
(60.8459 4.27473e-18 0)
(60.6477 4.28827e-18 0)
(60.4488 4.30023e-18 0)
(60.2491 4.31056e-18 0)
(60.0488 4.31921e-18 0)
(59.8477 4.32612e-18 0)
(59.6459 4.33127e-18 0)
(59.4434 4.33465e-18 0)
(59.2402 4.3363e-18 0)
(59.0363 4.33628e-18 0)
(58.8317 4.33471e-18 0)
(58.6264 4.33163e-18 0)
(58.4204 4.32697e-18 0)
(58.2137 4.3207e-18 0)
(58.0062 4.31282e-18 0)
(57.7981 4.3033e-18 0)
(57.5892 4.29205e-18 0)
(57.3797 4.27886e-18 0)
(57.1694 4.26337e-18 0)
(56.9584 4.24489e-18 0)
(56.7467 4.22236e-18 0)
(56.5343 4.19415e-18 0)
(56.3212 4.15802e-18 0)
(56.1074 4.11269e-18 0)
(55.8929 4.05439e-18 0)
(55.6777 3.98218e-18 0)
(55.4617 3.85451e-18 0)
(55.2451 3.59327e-18 0)
(55.0277 3.33443e-18 0)
(54.8097 3.21059e-18 0)
(54.5909 3.14562e-18 0)
(54.3714 3.07293e-18 0)
(54.1512 2.99166e-18 0)
(53.9303 2.92327e-18 0)
(53.7087 2.86314e-18 0)
(53.4864 2.81073e-18 0)
(53.2634 2.76454e-18 0)
(53.0397 2.72357e-18 0)
(52.8153 2.68726e-18 0)
(52.5901 2.65527e-18 0)
(52.3643 2.62745e-18 0)
(52.1377 2.60387e-18 0)
(51.9104 2.58305e-18 0)
(51.6825 2.56522e-18 0)
(51.4538 2.5506e-18 0)
(51.2244 2.53937e-18 0)
(50.9943 2.53166e-18 0)
(50.7635 2.52757e-18 0)
(50.532 2.52717e-18 0)
(50.2998 2.53048e-18 0)
(50.0668 2.53748e-18 0)
(49.8332 2.54808e-18 0)
(49.5988 2.56218e-18 0)
(49.3638 2.57955e-18 0)
(49.128 2.59991e-18 0)
(48.8916 2.62282e-18 0)
(48.6544 2.6477e-18 0)
(48.4165 2.67376e-18 0)
(48.1779 2.69994e-18 0)
(47.9386 2.72481e-18 0)
(47.6986 2.74826e-18 0)
(47.4579 2.76806e-18 0)
(47.2164 2.7815e-18 0)
(46.9743 2.78703e-18 0)
(46.7315 2.78283e-18 0)
(46.4879 2.73771e-18 0)
(46.2436 2.66046e-18 0)
(45.9987 2.58313e-18 0)
(45.753 2.53956e-18 0)
(45.5066 2.53902e-18 0)
(45.2595 2.54945e-18 0)
(45.0117 2.57012e-18 0)
(44.7632 2.59898e-18 0)
(44.514 2.64526e-18 0)
(44.2641 2.72207e-18 0)
(44.0134 2.79748e-18 0)
(43.7621 2.78289e-18 0)
(43.5101 2.762e-18 0)
(43.2573 2.8312e-18 0)
(43.0038 2.91351e-18 0)
(42.7497 2.9783e-18 0)
(42.4948 3.02981e-18 0)
(42.2392 3.06757e-18 0)
(41.9829 3.09312e-18 0)
(41.7259 3.10646e-18 0)
(41.4682 3.10937e-18 0)
(41.2098 3.10375e-18 0)
(40.9506 3.09164e-18 0)
(40.6908 3.0771e-18 0)
(40.4303 3.01408e-18 0)
(40.169 2.75881e-18 0)
(39.907 2.52786e-18 0)
(39.6444 2.52388e-18 0)
(39.381 2.59694e-18 0)
(39.1169 2.65105e-18 0)
(38.8521 2.73014e-18 0)
(38.5866 2.7937e-18 0)
(38.3204 2.79866e-18 0)
(38.0535 2.79712e-18 0)
(37.7859 2.71124e-18 0)
(37.5175 2.54564e-18 0)
(37.2485 2.35712e-18 0)
(36.9787 2.20012e-18 0)
(36.7083 2.08639e-18 0)
(36.4371 1.97587e-18 0)
(36.1652 1.8554e-18 0)
(35.8927 1.73599e-18 0)
(35.6194 1.62749e-18 0)
(35.3454 1.5312e-18 0)
(35.0707 1.40942e-18 0)
(34.7952 1.12982e-18 0)
(34.5191 8.48843e-19 0)
(34.2423 7.21308e-19 0)
(33.9648 6.14955e-19 0)
(33.6865 5.03135e-19 0)
(33.4076 3.99979e-19 0)
(33.1279 3.03341e-19 0)
(32.8475 2.14414e-19 0)
(32.5664 1.32698e-19 0)
(32.2847 5.77414e-20 0)
(32.0022 -1.08662e-20 0)
(31.719 -7.35062e-20 0)
(31.435 -1.30532e-19 0)
(31.1504 -1.8227e-19 0)
(30.8651 -2.29016e-19 0)
(30.5791 -2.71037e-19 0)
(30.2923 -3.08564e-19 0)
(30.0049 -3.41798e-19 0)
(29.7167 -3.70902e-19 0)
(29.4278 -3.96005e-19 0)
(29.1383 -4.17202e-19 0)
(28.848 -4.34549e-19 0)
(28.557 -4.48074e-19 0)
(28.2653 -4.57771e-19 0)
(27.9729 -4.63605e-19 0)
(27.6798 -4.65514e-19 0)
(27.3859 -4.63415e-19 0)
(27.0914 -4.572e-19 0)
(26.7962 -4.46749e-19 0)
(26.5002 -4.31928e-19 0)
(26.2036 -4.126e-19 0)
(25.9062 -3.86881e-19 0)
(25.6081 -3.76244e-19 0)
(25.3094 -5.68035e-19 0)
(25.0099 -7.51337e-19 0)
(24.7097 -7.22043e-19 0)
(24.4088 -6.6736e-19 0)
(24.1072 -6.14036e-19 0)
(23.8048 -5.65475e-19 0)
(23.5018 -5.21428e-19 0)
(23.1981 -4.81642e-19 0)
(22.8936 -4.45853e-19 0)
(22.5885 -4.13779e-19 0)
(22.2826 -3.85116e-19 0)
(21.976 -3.59525e-19 0)
(21.6688 -3.36617e-19 0)
(21.3608 -3.15939e-19 0)
(21.0521 -2.96954e-19 0)
(20.7427 -2.80759e-19 0)
(20.4326 -2.66743e-19 0)
(20.1218 -2.54317e-19 0)
(19.8102 -2.4291e-19 0)
(19.498 -2.31983e-19 0)
(19.1851 -2.20882e-19 0)
(18.8714 -2.08882e-19 0)
(18.557 -1.95225e-19 0)
(18.242 -1.79183e-19 0)
(17.9262 -1.71138e-19 0)
(17.6097 -1.95711e-19 0)
(17.2925 -2.12529e-19 0)
(16.9746 -1.95032e-19 0)
(16.656 -1.74722e-19 0)
(16.3367 -1.61776e-19 0)
(16.0167 -1.52024e-19 0)
(15.696 -1.48008e-19 0)
(15.3745 -1.48984e-19 0)
(15.0524 -1.58577e-19 0)
(14.7295 -1.53041e-19 0)
(14.406 -1.40953e-19 0)
(14.0817 -1.41578e-19 0)
(13.7567 -1.34993e-19 0)
(13.431 -1.32251e-19 0)
(13.1046 -1.33372e-19 0)
(12.7775 -1.31177e-19 0)
(12.4497 -1.25318e-19 0)
(12.1212 -1.15152e-19 0)
(11.792 -1.10349e-19 0)
(11.462 -8.94695e-20 0)
(11.1314 -6.20755e-20 0)
(10.8001 -4.81607e-20 0)
(10.468 -2.30392e-20 0)
(10.1352 -1.84545e-22 0)
(9.80175 1.75703e-20 0)
(9.46757 3.06548e-20 0)
(9.13268 3.92291e-20 0)
(8.79708 4.31414e-20 0)
(8.46077 3.80792e-20 0)
(8.12376 3.99033e-20 0)
(7.78604 4.48633e-20 0)
(7.44761 4.57728e-20 0)
(7.10847 5.82412e-20 0)
(6.76862 6.70562e-20 0)
(6.42806 5.7638e-20 0)
(6.0868 4.80967e-20 0)
(5.74483 5.29706e-20 0)
(5.40215 6.12143e-20 0)
(5.05876 6.55454e-20 0)
(4.71467 6.58304e-20 0)
(4.36987 6.36804e-20 0)
(4.02436 5.88702e-20 0)
(3.67814 4.9287e-20 0)
(3.33121 2.7569e-20 0)
(2.98357 1.31461e-20 0)
(2.63523 1.76128e-20 0)
(2.28618 1.71042e-20 0)
(1.93642 1.00348e-20 0)
(1.58595 3.43469e-21 0)
(1.23478 1.95643e-21 0)
(0.882894 1.85345e-21 0)
(0.530303 -1.21664e-21 0)
(0.177004 1.71023e-21 0)
)
;

boundaryField
{
    top_wall
    {
        type            noSlip;
    }
    inlet
    {
        type            cyclic;
    }
    bot_wall
    {
        type            noSlip;
    }
    outlet
    {
        type            cyclic;
    }
    frontAndBack
    {
        type            empty;
    }
}


// ************************************************************************* //
