# Wall shear stress
# Time          	patch           	min             	max             
0.5             	top_wall	(-3.67497871e-01 -4.83586914e-22 0.00000000e+00)	(-3.67497871e-01 -4.83586914e-22 0.00000000e+00)
0.5             	bot_wall	(-3.67497871e-01 1.20387079e-17 0.00000000e+00)	(-3.67497871e-01 1.20387079e-17 0.00000000e+00)
1               	top_wall	(-2.71822339e-01 -6.48830770e-22 0.00000000e+00)	(-2.71822339e-01 -6.48830770e-22 0.00000000e+00)
1               	bot_wall	(-2.71822339e-01 1.53723304e-17 0.00000000e+00)	(-2.71822339e-01 1.53723304e-17 0.00000000e+00)
1.5             	top_wall	(-2.30023727e-01 1.11773700e-22 0.00000000e+00)	(-2.30023727e-01 1.11773700e-22 0.00000000e+00)
1.5             	bot_wall	(-2.30023727e-01 2.00591123e-17 0.00000000e+00)	(-2.30023727e-01 2.00591123e-17 0.00000000e+00)
2               	top_wall	(-2.05404162e-01 8.37582332e-22 0.00000000e+00)	(-2.05404162e-01 8.37582332e-22 0.00000000e+00)
2               	bot_wall	(-2.05404162e-01 1.99984587e-17 0.00000000e+00)	(-2.05404162e-01 1.99984587e-17 0.00000000e+00)
2.5             	top_wall	(-1.88801024e-01 -1.25967926e-21 0.00000000e+00)	(-1.88801024e-01 -1.25967926e-21 0.00000000e+00)
2.5             	bot_wall	(-1.88801024e-01 2.12635383e-17 0.00000000e+00)	(-1.88801024e-01 2.12635383e-17 0.00000000e+00)
3               	top_wall	(-1.76692708e-01 5.37602182e-22 0.00000000e+00)	(-1.76692708e-01 5.37602182e-22 0.00000000e+00)
3               	bot_wall	(-1.76692708e-01 1.86737395e-17 0.00000000e+00)	(-1.76692708e-01 1.86737395e-17 0.00000000e+00)
3.5             	top_wall	(-1.67399222e-01 -2.17667975e-21 0.00000000e+00)	(-1.67399222e-01 -2.17667975e-21 0.00000000e+00)
3.5             	bot_wall	(-1.67399222e-01 2.07879935e-17 0.00000000e+00)	(-1.67399222e-01 2.07879935e-17 0.00000000e+00)
4               	top_wall	(-1.60004664e-01 -4.79435014e-22 0.00000000e+00)	(-1.60004664e-01 -4.79435014e-22 0.00000000e+00)
4               	bot_wall	(-1.60004664e-01 1.86905886e-17 0.00000000e+00)	(-1.60004664e-01 1.86905886e-17 0.00000000e+00)
4.5             	top_wall	(-1.53961817e-01 -1.87303434e-21 0.00000000e+00)	(-1.53961817e-01 -1.87303434e-21 0.00000000e+00)
4.5             	bot_wall	(-1.53961817e-01 1.72867484e-17 0.00000000e+00)	(-1.53961817e-01 1.72867484e-17 0.00000000e+00)
5               	top_wall	(-1.48921076e-01 -1.18413878e-21 0.00000000e+00)	(-1.48921076e-01 -1.18413878e-21 0.00000000e+00)
5               	bot_wall	(-1.48921076e-01 1.85771709e-17 0.00000000e+00)	(-1.48921076e-01 1.85771709e-17 0.00000000e+00)
5.5             	top_wall	(-1.44647335e-01 6.74464949e-23 0.00000000e+00)	(-1.44647335e-01 6.74464949e-23 0.00000000e+00)
5.5             	bot_wall	(-1.44647335e-01 1.57483001e-17 0.00000000e+00)	(-1.44647335e-01 1.57483001e-17 0.00000000e+00)
6               	top_wall	(-1.40975896e-01 8.94612507e-23 0.00000000e+00)	(-1.40975896e-01 8.94612507e-23 0.00000000e+00)
6               	bot_wall	(-1.40975896e-01 1.66384431e-17 0.00000000e+00)	(-1.40975896e-01 1.66384431e-17 0.00000000e+00)
6.5             	top_wall	(-1.37787581e-01 -2.43216609e-22 0.00000000e+00)	(-1.37787581e-01 -2.43216609e-22 0.00000000e+00)
6.5             	bot_wall	(-1.37787581e-01 1.33733688e-17 0.00000000e+00)	(-1.37787581e-01 1.33733688e-17 0.00000000e+00)
7               	top_wall	(-1.34993689e-01 8.85738218e-23 0.00000000e+00)	(-1.34993689e-01 8.85738218e-23 0.00000000e+00)
7               	bot_wall	(-1.34993689e-01 1.44915161e-17 0.00000000e+00)	(-1.34993689e-01 1.44915161e-17 0.00000000e+00)
7.5             	top_wall	(-1.32526735e-01 1.46268853e-21 0.00000000e+00)	(-1.32526735e-01 1.46268853e-21 0.00000000e+00)
7.5             	bot_wall	(-1.32526735e-01 1.37309918e-17 0.00000000e+00)	(-1.32526735e-01 1.37309918e-17 0.00000000e+00)
8               	top_wall	(-1.30334295e-01 4.86331382e-22 0.00000000e+00)	(-1.30334295e-01 4.86331382e-22 0.00000000e+00)
8               	bot_wall	(-1.30334295e-01 1.56609453e-17 0.00000000e+00)	(-1.30334295e-01 1.56609453e-17 0.00000000e+00)
8.5             	top_wall	(-1.28375002e-01 4.38115299e-22 0.00000000e+00)	(-1.28375002e-01 4.38115299e-22 0.00000000e+00)
8.5             	bot_wall	(-1.28375002e-01 1.62922875e-17 0.00000000e+00)	(-1.28375002e-01 1.62922875e-17 0.00000000e+00)
9               	top_wall	(-1.26615662e-01 2.64316687e-22 0.00000000e+00)	(-1.26615662e-01 2.64316687e-22 0.00000000e+00)
9               	bot_wall	(-1.26615662e-01 1.56758377e-17 0.00000000e+00)	(-1.26615662e-01 1.56758377e-17 0.00000000e+00)
9.5             	top_wall	(-1.25029358e-01 -7.24137917e-22 0.00000000e+00)	(-1.25029358e-01 -7.24137917e-22 0.00000000e+00)
9.5             	bot_wall	(-1.25029359e-01 1.44446717e-17 0.00000000e+00)	(-1.25029359e-01 1.44446717e-17 0.00000000e+00)
10              	top_wall	(-1.23593915e-01 -1.30454688e-21 0.00000000e+00)	(-1.23593915e-01 -1.30454688e-21 0.00000000e+00)
10              	bot_wall	(-1.23593915e-01 1.46075860e-17 0.00000000e+00)	(-1.23593915e-01 1.46075860e-17 0.00000000e+00)
10.5            	top_wall	(-1.22290972e-01 5.42650059e-22 0.00000000e+00)	(-1.22290972e-01 5.42650059e-22 0.00000000e+00)
10.5            	bot_wall	(-1.22290972e-01 1.53869191e-17 0.00000000e+00)	(-1.22290972e-01 1.53869191e-17 0.00000000e+00)
11              	top_wall	(-1.21105066e-01 -3.57377927e-22 0.00000000e+00)	(-1.21105066e-01 -3.57377927e-22 0.00000000e+00)
11              	bot_wall	(-1.21105067e-01 1.84364728e-17 0.00000000e+00)	(-1.21105067e-01 1.84364728e-17 0.00000000e+00)
11.5            	top_wall	(-1.20023161e-01 -7.71233658e-22 0.00000000e+00)	(-1.20023161e-01 -7.71233658e-22 0.00000000e+00)
11.5            	bot_wall	(-1.20023162e-01 1.64197460e-17 0.00000000e+00)	(-1.20023162e-01 1.64197460e-17 0.00000000e+00)
12              	top_wall	(-1.19034100e-01 4.78272998e-22 0.00000000e+00)	(-1.19034100e-01 4.78272998e-22 0.00000000e+00)
12              	bot_wall	(-1.19034100e-01 1.57753768e-17 0.00000000e+00)	(-1.19034100e-01 1.57753768e-17 0.00000000e+00)
12.5            	top_wall	(-1.18128299e-01 8.68991976e-22 0.00000000e+00)	(-1.18128299e-01 8.68991976e-22 0.00000000e+00)
12.5            	bot_wall	(-1.18128299e-01 1.55397711e-17 0.00000000e+00)	(-1.18128299e-01 1.55397711e-17 0.00000000e+00)
13              	top_wall	(-1.17297473e-01 5.37313581e-22 0.00000000e+00)	(-1.17297473e-01 5.37313581e-22 0.00000000e+00)
13              	bot_wall	(-1.17297473e-01 1.60596884e-17 0.00000000e+00)	(-1.17297473e-01 1.60596884e-17 0.00000000e+00)
13.5            	top_wall	(-1.16534362e-01 3.57900969e-22 0.00000000e+00)	(-1.16534362e-01 3.57900969e-22 0.00000000e+00)
13.5            	bot_wall	(-1.16534362e-01 1.77010334e-17 0.00000000e+00)	(-1.16534362e-01 1.77010334e-17 0.00000000e+00)
14              	top_wall	(-1.15832654e-01 -1.58215624e-21 0.00000000e+00)	(-1.15832654e-01 -1.58215624e-21 0.00000000e+00)
14              	bot_wall	(-1.15832654e-01 2.22072724e-17 0.00000000e+00)	(-1.15832654e-01 2.22072724e-17 0.00000000e+00)
14.5            	top_wall	(-1.15186721e-01 3.20674713e-22 0.00000000e+00)	(-1.15186721e-01 3.20674713e-22 0.00000000e+00)
14.5            	bot_wall	(-1.15186722e-01 1.96519874e-17 0.00000000e+00)	(-1.15186722e-01 1.96519874e-17 0.00000000e+00)
15              	top_wall	(-1.14591618e-01 -3.07053150e-22 0.00000000e+00)	(-1.14591618e-01 -3.07053150e-22 0.00000000e+00)
15              	bot_wall	(-1.14591618e-01 1.72659829e-17 0.00000000e+00)	(-1.14591618e-01 1.72659829e-17 0.00000000e+00)
15.5            	top_wall	(-1.14042922e-01 -7.03109513e-22 0.00000000e+00)	(-1.14042922e-01 -7.03109513e-22 0.00000000e+00)
15.5            	bot_wall	(-1.14042922e-01 1.66602955e-17 0.00000000e+00)	(-1.14042922e-01 1.66602955e-17 0.00000000e+00)
16              	top_wall	(-1.13536660e-01 5.07837919e-22 0.00000000e+00)	(-1.13536660e-01 5.07837919e-22 0.00000000e+00)
16              	bot_wall	(-1.13536660e-01 2.17301172e-17 0.00000000e+00)	(-1.13536660e-01 2.17301172e-17 0.00000000e+00)
16.5            	top_wall	(-1.13069314e-01 4.25378659e-22 0.00000000e+00)	(-1.13069314e-01 4.25378659e-22 0.00000000e+00)
16.5            	bot_wall	(-1.13069315e-01 1.81522059e-17 0.00000000e+00)	(-1.13069315e-01 1.81522059e-17 0.00000000e+00)
17              	top_wall	(-1.12637644e-01 4.87649344e-22 0.00000000e+00)	(-1.12637644e-01 4.87649344e-22 0.00000000e+00)
17              	bot_wall	(-1.12637644e-01 1.96679728e-17 0.00000000e+00)	(-1.12637644e-01 1.96679728e-17 0.00000000e+00)
17.5            	top_wall	(-1.12238770e-01 5.80111683e-22 0.00000000e+00)	(-1.12238770e-01 5.80111683e-22 0.00000000e+00)
17.5            	bot_wall	(-1.12238770e-01 2.17927223e-17 0.00000000e+00)	(-1.12238770e-01 2.17927223e-17 0.00000000e+00)
18              	top_wall	(-1.11870061e-01 -1.38272750e-21 0.00000000e+00)	(-1.11870061e-01 -1.38272750e-21 0.00000000e+00)
18              	bot_wall	(-1.11870061e-01 2.15056832e-17 0.00000000e+00)	(-1.11870061e-01 2.15056832e-17 0.00000000e+00)
18.5            	top_wall	(-1.11529109e-01 -6.81770747e-22 0.00000000e+00)	(-1.11529109e-01 -6.81770747e-22 0.00000000e+00)
18.5            	bot_wall	(-1.11529110e-01 1.87748233e-17 0.00000000e+00)	(-1.11529110e-01 1.87748233e-17 0.00000000e+00)
19              	top_wall	(-1.11213771e-01 2.19490658e-22 0.00000000e+00)	(-1.11213771e-01 2.19490658e-22 0.00000000e+00)
19              	bot_wall	(-1.11213771e-01 2.18661049e-17 0.00000000e+00)	(-1.11213771e-01 2.18661049e-17 0.00000000e+00)
19.5            	top_wall	(-1.10922017e-01 3.46698966e-22 0.00000000e+00)	(-1.10922017e-01 3.46698966e-22 0.00000000e+00)
19.5            	bot_wall	(-1.10922017e-01 1.94187700e-17 0.00000000e+00)	(-1.10922017e-01 1.94187700e-17 0.00000000e+00)
20              	top_wall	(-1.10652044e-01 4.81857722e-22 0.00000000e+00)	(-1.10652044e-01 4.81857722e-22 0.00000000e+00)
20              	bot_wall	(-1.10652044e-01 2.03401482e-17 0.00000000e+00)	(-1.10652044e-01 2.03401482e-17 0.00000000e+00)
20.5            	top_wall	(-1.10402181e-01 -4.73161557e-22 0.00000000e+00)	(-1.10402181e-01 -4.73161557e-22 0.00000000e+00)
20.5            	bot_wall	(-1.10402181e-01 2.16901787e-17 0.00000000e+00)	(-1.10402181e-01 2.16901787e-17 0.00000000e+00)
21              	top_wall	(-1.10170877e-01 -2.11107588e-22 0.00000000e+00)	(-1.10170877e-01 -2.11107588e-22 0.00000000e+00)
21              	bot_wall	(-1.10170877e-01 2.08247050e-17 0.00000000e+00)	(-1.10170877e-01 2.08247050e-17 0.00000000e+00)
21.5            	top_wall	(-1.09956756e-01 -5.74637731e-22 0.00000000e+00)	(-1.09956756e-01 -5.74637731e-22 0.00000000e+00)
21.5            	bot_wall	(-1.09956756e-01 1.94050098e-17 0.00000000e+00)	(-1.09956756e-01 1.94050098e-17 0.00000000e+00)
22              	top_wall	(-1.09758489e-01 9.39006968e-22 0.00000000e+00)	(-1.09758489e-01 9.39006968e-22 0.00000000e+00)
22              	bot_wall	(-1.09758490e-01 2.12404915e-17 0.00000000e+00)	(-1.09758490e-01 2.12404915e-17 0.00000000e+00)
22.5            	top_wall	(-1.09574896e-01 -4.84744716e-22 0.00000000e+00)	(-1.09574896e-01 -4.84744716e-22 0.00000000e+00)
22.5            	bot_wall	(-1.09574896e-01 2.22167171e-17 0.00000000e+00)	(-1.09574896e-01 2.22167171e-17 0.00000000e+00)
23              	top_wall	(-1.09404882e-01 1.03238991e-23 0.00000000e+00)	(-1.09404882e-01 1.03238991e-23 0.00000000e+00)
23              	bot_wall	(-1.09404883e-01 1.63243733e-17 0.00000000e+00)	(-1.09404883e-01 1.63243733e-17 0.00000000e+00)
23.5            	top_wall	(-1.09247411e-01 1.53187049e-23 0.00000000e+00)	(-1.09247411e-01 1.53187049e-23 0.00000000e+00)
23.5            	bot_wall	(-1.09247412e-01 2.31770647e-17 0.00000000e+00)	(-1.09247412e-01 2.31770647e-17 0.00000000e+00)
24              	top_wall	(-1.09101577e-01 3.04964625e-23 0.00000000e+00)	(-1.09101577e-01 3.04964625e-23 0.00000000e+00)
24              	bot_wall	(-1.09101578e-01 1.60755244e-17 0.00000000e+00)	(-1.09101578e-01 1.60755244e-17 0.00000000e+00)
24.5            	top_wall	(-1.08966489e-01 2.23592349e-22 0.00000000e+00)	(-1.08966489e-01 2.23592349e-22 0.00000000e+00)
24.5            	bot_wall	(-1.08966490e-01 1.80323688e-17 0.00000000e+00)	(-1.08966490e-01 1.80323688e-17 0.00000000e+00)
25              	top_wall	(-1.08841353e-01 2.87431449e-22 0.00000000e+00)	(-1.08841353e-01 2.87431449e-22 0.00000000e+00)
25              	bot_wall	(-1.08841354e-01 2.11962340e-17 0.00000000e+00)	(-1.08841354e-01 2.11962340e-17 0.00000000e+00)
25.5            	top_wall	(-1.08725448e-01 2.62162305e-22 0.00000000e+00)	(-1.08725448e-01 2.62162305e-22 0.00000000e+00)
25.5            	bot_wall	(-1.08725448e-01 1.93761111e-17 0.00000000e+00)	(-1.08725448e-01 1.93761111e-17 0.00000000e+00)
26              	top_wall	(-1.08618062e-01 -2.04360339e-22 0.00000000e+00)	(-1.08618062e-01 -2.04360339e-22 0.00000000e+00)
26              	bot_wall	(-1.08618062e-01 2.21234274e-17 0.00000000e+00)	(-1.08618062e-01 2.21234274e-17 0.00000000e+00)
26.5            	top_wall	(-1.08518591e-01 -6.27082474e-23 0.00000000e+00)	(-1.08518591e-01 -6.27082474e-23 0.00000000e+00)
26.5            	bot_wall	(-1.08518591e-01 2.36542121e-17 0.00000000e+00)	(-1.08518591e-01 2.36542121e-17 0.00000000e+00)
27              	top_wall	(-1.08426435e-01 -3.96577037e-22 0.00000000e+00)	(-1.08426435e-01 -3.96577037e-22 0.00000000e+00)
27              	bot_wall	(-1.08426436e-01 2.15394176e-17 0.00000000e+00)	(-1.08426436e-01 2.15394176e-17 0.00000000e+00)
27.5            	top_wall	(-1.08341048e-01 2.29261793e-22 0.00000000e+00)	(-1.08341048e-01 2.29261793e-22 0.00000000e+00)
27.5            	bot_wall	(-1.08341048e-01 2.46049098e-17 0.00000000e+00)	(-1.08341048e-01 2.46049098e-17 0.00000000e+00)
28              	top_wall	(-1.08261959e-01 -4.42993738e-22 0.00000000e+00)	(-1.08261959e-01 -4.42993738e-22 0.00000000e+00)
28              	bot_wall	(-1.08261959e-01 2.18809728e-17 0.00000000e+00)	(-1.08261959e-01 2.18809728e-17 0.00000000e+00)
28.5            	top_wall	(-1.08188670e-01 -1.19829918e-22 0.00000000e+00)	(-1.08188670e-01 -1.19829918e-22 0.00000000e+00)
28.5            	bot_wall	(-1.08188670e-01 2.14351308e-17 0.00000000e+00)	(-1.08188670e-01 2.14351308e-17 0.00000000e+00)
29              	top_wall	(-1.08120774e-01 6.56257722e-22 0.00000000e+00)	(-1.08120774e-01 6.56257722e-22 0.00000000e+00)
29              	bot_wall	(-1.08120774e-01 2.03739311e-17 0.00000000e+00)	(-1.08120774e-01 2.03739311e-17 0.00000000e+00)
29.5            	top_wall	(-1.08057871e-01 2.29493515e-22 0.00000000e+00)	(-1.08057871e-01 2.29493515e-22 0.00000000e+00)
29.5            	bot_wall	(-1.08057871e-01 2.24678126e-17 0.00000000e+00)	(-1.08057871e-01 2.24678126e-17 0.00000000e+00)
30              	top_wall	(-1.07999576e-01 -1.48033364e-22 0.00000000e+00)	(-1.07999576e-01 -1.48033364e-22 0.00000000e+00)
30              	bot_wall	(-1.07999577e-01 2.29313033e-17 0.00000000e+00)	(-1.07999577e-01 2.29313033e-17 0.00000000e+00)
30.5            	top_wall	(-1.07945584e-01 1.07082955e-21 0.00000000e+00)	(-1.07945584e-01 1.07082955e-21 0.00000000e+00)
30.5            	bot_wall	(-1.07945584e-01 2.04662694e-17 0.00000000e+00)	(-1.07945584e-01 2.04662694e-17 0.00000000e+00)
31              	top_wall	(-1.07895548e-01 -5.97557676e-22 0.00000000e+00)	(-1.07895548e-01 -5.97557676e-22 0.00000000e+00)
31              	bot_wall	(-1.07895548e-01 2.03320210e-17 0.00000000e+00)	(-1.07895548e-01 2.03320210e-17 0.00000000e+00)
31.5            	top_wall	(-1.07849186e-01 3.24885039e-22 0.00000000e+00)	(-1.07849186e-01 3.24885039e-22 0.00000000e+00)
31.5            	bot_wall	(-1.07849186e-01 2.05586832e-17 0.00000000e+00)	(-1.07849186e-01 2.05586832e-17 0.00000000e+00)
32              	top_wall	(-1.07806239e-01 -3.33888256e-23 0.00000000e+00)	(-1.07806239e-01 -3.33888256e-23 0.00000000e+00)
32              	bot_wall	(-1.07806239e-01 1.89650009e-17 0.00000000e+00)	(-1.07806239e-01 1.89650009e-17 0.00000000e+00)
32.5            	top_wall	(-1.07766433e-01 -2.74000345e-22 0.00000000e+00)	(-1.07766433e-01 -2.74000345e-22 0.00000000e+00)
32.5            	bot_wall	(-1.07766433e-01 1.91270003e-17 0.00000000e+00)	(-1.07766433e-01 1.91270003e-17 0.00000000e+00)
33              	top_wall	(-1.07729563e-01 -2.82526317e-22 0.00000000e+00)	(-1.07729563e-01 -2.82526317e-22 0.00000000e+00)
33              	bot_wall	(-1.07729564e-01 1.90862860e-17 0.00000000e+00)	(-1.07729564e-01 1.90862860e-17 0.00000000e+00)
33.5            	top_wall	(-1.07695397e-01 -2.44852263e-22 0.00000000e+00)	(-1.07695397e-01 -2.44852263e-22 0.00000000e+00)
33.5            	bot_wall	(-1.07695398e-01 1.98855431e-17 0.00000000e+00)	(-1.07695398e-01 1.98855431e-17 0.00000000e+00)
34              	top_wall	(-1.07663731e-01 1.71134467e-22 0.00000000e+00)	(-1.07663731e-01 1.71134467e-22 0.00000000e+00)
34              	bot_wall	(-1.07663731e-01 1.46384601e-17 0.00000000e+00)	(-1.07663731e-01 1.46384601e-17 0.00000000e+00)
34.5            	top_wall	(-1.07634408e-01 -7.04533085e-22 0.00000000e+00)	(-1.07634408e-01 -7.04533085e-22 0.00000000e+00)
34.5            	bot_wall	(-1.07634408e-01 1.81288351e-17 0.00000000e+00)	(-1.07634408e-01 1.81288351e-17 0.00000000e+00)
35              	top_wall	(-1.07607225e-01 -4.87322382e-22 0.00000000e+00)	(-1.07607225e-01 -4.87322382e-22 0.00000000e+00)
35              	bot_wall	(-1.07607225e-01 1.96038861e-17 0.00000000e+00)	(-1.07607225e-01 1.96038861e-17 0.00000000e+00)
35.5            	top_wall	(-1.07582043e-01 5.22163872e-22 0.00000000e+00)	(-1.07582043e-01 5.22163872e-22 0.00000000e+00)
35.5            	bot_wall	(-1.07582043e-01 1.66402791e-17 0.00000000e+00)	(-1.07582043e-01 1.66402791e-17 0.00000000e+00)
36              	top_wall	(-1.07558713e-01 -5.25791314e-22 0.00000000e+00)	(-1.07558713e-01 -5.25791314e-22 0.00000000e+00)
36              	bot_wall	(-1.07558713e-01 1.85668376e-17 0.00000000e+00)	(-1.07558713e-01 1.85668376e-17 0.00000000e+00)
36.5            	top_wall	(-1.07537083e-01 -1.12887458e-21 0.00000000e+00)	(-1.07537083e-01 -1.12887458e-21 0.00000000e+00)
36.5            	bot_wall	(-1.07537083e-01 2.24330466e-17 0.00000000e+00)	(-1.07537083e-01 2.24330466e-17 0.00000000e+00)
37              	top_wall	(-1.07517060e-01 8.06583142e-22 0.00000000e+00)	(-1.07517060e-01 8.06583142e-22 0.00000000e+00)
37              	bot_wall	(-1.07517060e-01 1.79436064e-17 0.00000000e+00)	(-1.07517060e-01 1.79436064e-17 0.00000000e+00)
37.5            	top_wall	(-1.07498496e-01 -2.07356607e-22 0.00000000e+00)	(-1.07498496e-01 -2.07356607e-22 0.00000000e+00)
37.5            	bot_wall	(-1.07498497e-01 1.76833889e-17 0.00000000e+00)	(-1.07498497e-01 1.76833889e-17 0.00000000e+00)
38              	top_wall	(-1.07481293e-01 6.36842519e-22 0.00000000e+00)	(-1.07481293e-01 6.36842519e-22 0.00000000e+00)
38              	bot_wall	(-1.07481293e-01 2.00687471e-17 0.00000000e+00)	(-1.07481293e-01 2.00687471e-17 0.00000000e+00)
38.5            	top_wall	(-1.07465364e-01 -9.51187829e-23 0.00000000e+00)	(-1.07465364e-01 -9.51187829e-23 0.00000000e+00)
38.5            	bot_wall	(-1.07465365e-01 1.81334950e-17 0.00000000e+00)	(-1.07465365e-01 1.81334950e-17 0.00000000e+00)
39              	top_wall	(-1.07450592e-01 -3.31993501e-22 0.00000000e+00)	(-1.07450592e-01 -3.31993501e-22 0.00000000e+00)
39              	bot_wall	(-1.07450592e-01 1.63424999e-17 0.00000000e+00)	(-1.07450592e-01 1.63424999e-17 0.00000000e+00)
39.5            	top_wall	(-1.07436914e-01 -3.18211556e-22 0.00000000e+00)	(-1.07436914e-01 -3.18211556e-22 0.00000000e+00)
39.5            	bot_wall	(-1.07436914e-01 2.08814297e-17 0.00000000e+00)	(-1.07436914e-01 2.08814297e-17 0.00000000e+00)
40              	top_wall	(-1.07424239e-01 -1.56612882e-22 0.00000000e+00)	(-1.07424239e-01 -1.56612882e-22 0.00000000e+00)
40              	bot_wall	(-1.07424239e-01 1.69315640e-17 0.00000000e+00)	(-1.07424239e-01 1.69315640e-17 0.00000000e+00)
40.5            	top_wall	(-1.07412482e-01 4.94127722e-22 0.00000000e+00)	(-1.07412482e-01 4.94127722e-22 0.00000000e+00)
40.5            	bot_wall	(-1.07412482e-01 1.74709555e-17 0.00000000e+00)	(-1.07412482e-01 1.74709555e-17 0.00000000e+00)
41              	top_wall	(-1.07401610e-01 5.89818361e-22 0.00000000e+00)	(-1.07401610e-01 5.89818361e-22 0.00000000e+00)
41              	bot_wall	(-1.07401610e-01 1.70660477e-17 0.00000000e+00)	(-1.07401610e-01 1.70660477e-17 0.00000000e+00)
41.5            	top_wall	(-1.07391522e-01 3.25228674e-22 0.00000000e+00)	(-1.07391522e-01 3.25228674e-22 0.00000000e+00)
41.5            	bot_wall	(-1.07391522e-01 1.77038148e-17 0.00000000e+00)	(-1.07391522e-01 1.77038148e-17 0.00000000e+00)
42              	top_wall	(-1.07382175e-01 -5.90358194e-22 0.00000000e+00)	(-1.07382175e-01 -5.90358194e-22 0.00000000e+00)
42              	bot_wall	(-1.07382175e-01 2.05660767e-17 0.00000000e+00)	(-1.07382175e-01 2.05660767e-17 0.00000000e+00)
42.5            	top_wall	(-1.07373523e-01 -1.18023308e-21 0.00000000e+00)	(-1.07373523e-01 -1.18023308e-21 0.00000000e+00)
42.5            	bot_wall	(-1.07373523e-01 2.31620205e-17 0.00000000e+00)	(-1.07373523e-01 2.31620205e-17 0.00000000e+00)
43              	top_wall	(-1.07365493e-01 -9.56988724e-22 0.00000000e+00)	(-1.07365493e-01 -9.56988724e-22 0.00000000e+00)
43              	bot_wall	(-1.07365493e-01 2.12672293e-17 0.00000000e+00)	(-1.07365493e-01 2.12672293e-17 0.00000000e+00)
43.5            	top_wall	(-1.07358065e-01 1.32936646e-21 0.00000000e+00)	(-1.07358065e-01 1.32936646e-21 0.00000000e+00)
43.5            	bot_wall	(-1.07358065e-01 1.73866851e-17 0.00000000e+00)	(-1.07358065e-01 1.73866851e-17 0.00000000e+00)
44              	top_wall	(-1.07351179e-01 -4.45643825e-22 0.00000000e+00)	(-1.07351179e-01 -4.45643825e-22 0.00000000e+00)
44              	bot_wall	(-1.07351179e-01 1.83913219e-17 0.00000000e+00)	(-1.07351179e-01 1.83913219e-17 0.00000000e+00)
44.5            	top_wall	(-1.07344786e-01 6.31293281e-22 0.00000000e+00)	(-1.07344786e-01 6.31293281e-22 0.00000000e+00)
44.5            	bot_wall	(-1.07344786e-01 2.52753586e-17 0.00000000e+00)	(-1.07344786e-01 2.52753586e-17 0.00000000e+00)
45              	top_wall	(-1.07338884e-01 -6.04998878e-22 0.00000000e+00)	(-1.07338884e-01 -6.04998878e-22 0.00000000e+00)
45              	bot_wall	(-1.07338885e-01 1.88604669e-17 0.00000000e+00)	(-1.07338885e-01 1.88604669e-17 0.00000000e+00)
45.5            	top_wall	(-1.07333402e-01 -1.97640674e-22 0.00000000e+00)	(-1.07333402e-01 -1.97640674e-22 0.00000000e+00)
45.5            	bot_wall	(-1.07333402e-01 1.65516359e-17 0.00000000e+00)	(-1.07333402e-01 1.65516359e-17 0.00000000e+00)
46              	top_wall	(-1.07328322e-01 -5.32130910e-22 0.00000000e+00)	(-1.07328322e-01 -5.32130910e-22 0.00000000e+00)
46              	bot_wall	(-1.07328322e-01 1.60571471e-17 0.00000000e+00)	(-1.07328322e-01 1.60571471e-17 0.00000000e+00)
46.5            	top_wall	(-1.07323625e-01 -1.73566410e-22 0.00000000e+00)	(-1.07323625e-01 -1.73566410e-22 0.00000000e+00)
46.5            	bot_wall	(-1.07323625e-01 2.07379501e-17 0.00000000e+00)	(-1.07323625e-01 2.07379501e-17 0.00000000e+00)
47              	top_wall	(-1.07319259e-01 1.24516828e-22 0.00000000e+00)	(-1.07319259e-01 1.24516828e-22 0.00000000e+00)
47              	bot_wall	(-1.07319259e-01 1.79232951e-17 0.00000000e+00)	(-1.07319259e-01 1.79232951e-17 0.00000000e+00)
47.5            	top_wall	(-1.07315224e-01 -4.55838589e-22 0.00000000e+00)	(-1.07315224e-01 -4.55838589e-22 0.00000000e+00)
47.5            	bot_wall	(-1.07315224e-01 1.95872837e-17 0.00000000e+00)	(-1.07315224e-01 1.95872837e-17 0.00000000e+00)
48              	top_wall	(-1.07311484e-01 5.18957363e-22 0.00000000e+00)	(-1.07311484e-01 5.18957363e-22 0.00000000e+00)
48              	bot_wall	(-1.07311485e-01 1.95002355e-17 0.00000000e+00)	(-1.07311485e-01 1.95002355e-17 0.00000000e+00)
48.5            	top_wall	(-1.07308007e-01 -3.93322693e-22 0.00000000e+00)	(-1.07308007e-01 -3.93322693e-22 0.00000000e+00)
48.5            	bot_wall	(-1.07308007e-01 2.08627078e-17 0.00000000e+00)	(-1.07308007e-01 2.08627078e-17 0.00000000e+00)
49              	top_wall	(-1.07304803e-01 1.47243745e-22 0.00000000e+00)	(-1.07304803e-01 1.47243745e-22 0.00000000e+00)
49              	bot_wall	(-1.07304804e-01 1.49675414e-17 0.00000000e+00)	(-1.07304804e-01 1.49675414e-17 0.00000000e+00)
49.5            	top_wall	(-1.07301826e-01 -2.37643311e-22 0.00000000e+00)	(-1.07301826e-01 -2.37643311e-22 0.00000000e+00)
49.5            	bot_wall	(-1.07301826e-01 1.57168927e-17 0.00000000e+00)	(-1.07301826e-01 1.57168927e-17 0.00000000e+00)
50              	top_wall	(-1.07299059e-01 -5.50382156e-22 0.00000000e+00)	(-1.07299059e-01 -5.50382156e-22 0.00000000e+00)
50              	bot_wall	(-1.07299059e-01 2.11331790e-17 0.00000000e+00)	(-1.07299059e-01 2.11331790e-17 0.00000000e+00)
50.5            	top_wall	(-1.07296513e-01 8.59001095e-22 0.00000000e+00)	(-1.07296513e-01 8.59001095e-22 0.00000000e+00)
50.5            	bot_wall	(-1.07296513e-01 1.83392445e-17 0.00000000e+00)	(-1.07296513e-01 1.83392445e-17 0.00000000e+00)
51              	top_wall	(-1.07294141e-01 5.33823514e-22 0.00000000e+00)	(-1.07294141e-01 5.33823514e-22 0.00000000e+00)
51              	bot_wall	(-1.07294141e-01 1.90754204e-17 0.00000000e+00)	(-1.07294141e-01 1.90754204e-17 0.00000000e+00)
51.5            	top_wall	(-1.07291944e-01 4.23278110e-22 0.00000000e+00)	(-1.07291944e-01 4.23278110e-22 0.00000000e+00)
51.5            	bot_wall	(-1.07291944e-01 1.97225631e-17 0.00000000e+00)	(-1.07291944e-01 1.97225631e-17 0.00000000e+00)
52              	top_wall	(-1.07289918e-01 -4.65813513e-22 0.00000000e+00)	(-1.07289918e-01 -4.65813513e-22 0.00000000e+00)
52              	bot_wall	(-1.07289918e-01 1.92570154e-17 0.00000000e+00)	(-1.07289918e-01 1.92570154e-17 0.00000000e+00)
52.5            	top_wall	(-1.07288028e-01 3.41062281e-23 0.00000000e+00)	(-1.07288028e-01 3.41062281e-23 0.00000000e+00)
52.5            	bot_wall	(-1.07288028e-01 1.90354817e-17 0.00000000e+00)	(-1.07288028e-01 1.90354817e-17 0.00000000e+00)
53              	top_wall	(-1.07286283e-01 -2.80839335e-22 0.00000000e+00)	(-1.07286283e-01 -2.80839335e-22 0.00000000e+00)
53              	bot_wall	(-1.07286283e-01 1.78776323e-17 0.00000000e+00)	(-1.07286283e-01 1.78776323e-17 0.00000000e+00)
53.5            	top_wall	(-1.07284671e-01 1.11648619e-23 0.00000000e+00)	(-1.07284671e-01 1.11648619e-23 0.00000000e+00)
53.5            	bot_wall	(-1.07284671e-01 1.69122721e-17 0.00000000e+00)	(-1.07284671e-01 1.69122721e-17 0.00000000e+00)
54              	top_wall	(-1.07283165e-01 1.64376033e-22 0.00000000e+00)	(-1.07283165e-01 1.64376033e-22 0.00000000e+00)
54              	bot_wall	(-1.07283165e-01 1.54200162e-17 0.00000000e+00)	(-1.07283165e-01 1.54200162e-17 0.00000000e+00)
54.5            	top_wall	(-1.07281779e-01 2.53697966e-22 0.00000000e+00)	(-1.07281779e-01 2.53697966e-22 0.00000000e+00)
54.5            	bot_wall	(-1.07281779e-01 1.97195004e-17 0.00000000e+00)	(-1.07281779e-01 1.97195004e-17 0.00000000e+00)
55              	top_wall	(-1.07280497e-01 9.70189393e-22 0.00000000e+00)	(-1.07280497e-01 9.70189393e-22 0.00000000e+00)
55              	bot_wall	(-1.07280497e-01 1.90355958e-17 0.00000000e+00)	(-1.07280497e-01 1.90355958e-17 0.00000000e+00)
55.5            	top_wall	(-1.07279297e-01 1.01731576e-21 0.00000000e+00)	(-1.07279297e-01 1.01731576e-21 0.00000000e+00)
55.5            	bot_wall	(-1.07279297e-01 1.94885290e-17 0.00000000e+00)	(-1.07279297e-01 1.94885290e-17 0.00000000e+00)
56              	top_wall	(-1.07278195e-01 2.68004726e-22 0.00000000e+00)	(-1.07278195e-01 2.68004726e-22 0.00000000e+00)
56              	bot_wall	(-1.07278195e-01 1.39815723e-17 0.00000000e+00)	(-1.07278195e-01 1.39815723e-17 0.00000000e+00)
56.5            	top_wall	(-1.07277177e-01 1.55055827e-22 0.00000000e+00)	(-1.07277177e-01 1.55055827e-22 0.00000000e+00)
56.5            	bot_wall	(-1.07277177e-01 1.97482655e-17 0.00000000e+00)	(-1.07277177e-01 1.97482655e-17 0.00000000e+00)
57              	top_wall	(-1.07276221e-01 3.99159731e-23 0.00000000e+00)	(-1.07276221e-01 3.99159731e-23 0.00000000e+00)
57              	bot_wall	(-1.07276221e-01 1.47291633e-17 0.00000000e+00)	(-1.07276221e-01 1.47291633e-17 0.00000000e+00)
57.5            	top_wall	(-1.07275343e-01 -1.62944932e-23 0.00000000e+00)	(-1.07275343e-01 -1.62944932e-23 0.00000000e+00)
57.5            	bot_wall	(-1.07275343e-01 1.49543432e-17 0.00000000e+00)	(-1.07275343e-01 1.49543432e-17 0.00000000e+00)
58              	top_wall	(-1.07274535e-01 -4.41752531e-22 0.00000000e+00)	(-1.07274535e-01 -4.41752531e-22 0.00000000e+00)
58              	bot_wall	(-1.07274535e-01 1.58285196e-17 0.00000000e+00)	(-1.07274535e-01 1.58285196e-17 0.00000000e+00)
58.5            	top_wall	(-1.07273776e-01 1.23795710e-22 0.00000000e+00)	(-1.07273776e-01 1.23795710e-22 0.00000000e+00)
58.5            	bot_wall	(-1.07273776e-01 1.58218296e-17 0.00000000e+00)	(-1.07273776e-01 1.58218296e-17 0.00000000e+00)
59              	top_wall	(-1.07273071e-01 -2.15923765e-23 0.00000000e+00)	(-1.07273071e-01 -2.15923765e-23 0.00000000e+00)
59              	bot_wall	(-1.07273071e-01 1.95271014e-17 0.00000000e+00)	(-1.07273071e-01 1.95271014e-17 0.00000000e+00)
59.5            	top_wall	(-1.07272434e-01 3.50371503e-22 0.00000000e+00)	(-1.07272434e-01 3.50371503e-22 0.00000000e+00)
59.5            	bot_wall	(-1.07272434e-01 1.95486609e-17 0.00000000e+00)	(-1.07272434e-01 1.95486609e-17 0.00000000e+00)
60              	top_wall	(-1.07271832e-01 4.33240012e-22 0.00000000e+00)	(-1.07271832e-01 4.33240012e-22 0.00000000e+00)
60              	bot_wall	(-1.07271832e-01 1.85668865e-17 0.00000000e+00)	(-1.07271832e-01 1.85668865e-17 0.00000000e+00)
60.5            	top_wall	(-1.07271264e-01 -1.02635282e-21 0.00000000e+00)	(-1.07271264e-01 -1.02635282e-21 0.00000000e+00)
60.5            	bot_wall	(-1.07271264e-01 2.11574759e-17 0.00000000e+00)	(-1.07271264e-01 2.11574759e-17 0.00000000e+00)
61              	top_wall	(-1.07270759e-01 6.69870721e-22 0.00000000e+00)	(-1.07270759e-01 6.69870721e-22 0.00000000e+00)
61              	bot_wall	(-1.07270759e-01 1.66639903e-17 0.00000000e+00)	(-1.07270759e-01 1.66639903e-17 0.00000000e+00)