/*--------------------------------*- C++ -*----------------------------------*\
| =========                 |                                                 |
| \\      /  F ield         | OpenFOAM: The Open Source CFD Toolbox           |
|  \\    /   O peration     | Version:  2312                                  |
|   \\  /    A nd           | Website:  www.openfoam.com                      |
|    \\/     M anipulation  |                                                 |
\*---------------------------------------------------------------------------*/
FoamFile
{
    version     2.0;
    format      ascii;
    arch        "LSB;label=32;scalar=64";
    class       volScalarField;
    location    "26.74";
    object      nut;
}
// * * * * * * * * * * * * * * * * * * * * * * * * * * * * * * * * * * * * * //

dimensions      [0 2 -1 0 0 0 0];

internalField   nonuniform List<scalar> 
1000
(
4.572e-10
1.64087e-09
2.57411e-08
1.81824e-07
7.20825e-07
1.94201e-06
3.9981e-06
6.83659e-06
1.03024e-05
1.42382e-05
1.85203e-05
2.30596e-05
2.77924e-05
3.26732e-05
3.76685e-05
4.2753e-05
4.79077e-05
5.31173e-05
5.837e-05
6.36561e-05
6.89676e-05
7.42981e-05
7.96421e-05
8.4995e-05
9.03529e-05
9.57123e-05
0.000101071
0.000106425
0.000111773
0.000117114
0.000122445
0.000127765
0.000133072
0.000138367
0.000143646
0.00014891
0.000154157
0.000159388
0.0001646
0.000169795
0.00017497
0.000180125
0.000185261
0.000190376
0.000195471
0.000200545
0.000205597
0.000210627
0.000215636
0.000220622
0.000225586
0.000230527
0.000235446
0.000240341
0.000245214
0.000250063
0.000254889
0.000259692
0.000264471
0.000269226
0.000273957
0.000278665
0.000283349
0.000288009
0.000292645
0.000297257
0.000301845
0.000306409
0.000310949
0.000315464
0.000319956
0.000324423
0.000328866
0.000333285
0.00033768
0.00034205
0.000346396
0.000350719
0.000355017
0.00035929
0.00036354
0.000367766
0.000371967
0.000376145
0.000380298
0.000384427
0.000388532
0.000392614
0.000396671
0.000400705
0.000404714
0.0004087
0.000412662
0.0004166
0.000420515
0.000424406
0.000428273
0.000432116
0.000435937
0.000439733
0.000443506
0.000447256
0.000450982
0.000454685
0.000458365
0.000462021
0.000465655
0.000469265
0.000472852
0.000476417
0.000479958
0.000483476
0.000486972
0.000490444
0.000493894
0.000497322
0.000500726
0.000504109
0.000507468
0.000510806
0.00051412
0.000517413
0.000520683
0.000523931
0.000527157
0.000530361
0.000533543
0.000536703
0.000539841
0.000542957
0.000546051
0.000549124
0.000552175
0.000555204
0.000558212
0.000561199
0.000564164
0.000567107
0.00057003
0.000572931
0.000575811
0.00057867
0.000581508
0.000584325
0.000587122
0.000589897
0.000592652
0.000595385
0.000598099
0.000600792
0.000603464
0.000606116
0.000608747
0.000611358
0.000613949
0.00061652
0.000619071
0.000621601
0.000624112
0.000626603
0.000629074
0.000631525
0.000633956
0.000636368
0.00063876
0.000641133
0.000643486
0.00064582
0.000648135
0.00065043
0.000652706
0.000654963
0.000657201
0.00065942
0.00066162
0.000663801
0.000665964
0.000668107
0.000670232
0.000672339
0.000674427
0.000676496
0.000678547
0.00068058
0.000682594
0.00068459
0.000686568
0.000688528
0.00069047
0.000692394
0.0006943
0.000696188
0.000698059
0.000699911
0.000701746
0.000703564
0.000705364
0.000707146
0.000708911
0.000710659
0.00071239
0.000714103
0.000715799
0.000717478
0.00071914
0.000720785
0.000722413
0.000724025
0.000725619
0.000727197
0.000728758
0.000730303
0.000731831
0.000733342
0.000734838
0.000736316
0.000737779
0.000739225
0.000740655
0.000742069
0.000743467
0.000744849
0.000746214
0.000747564
0.000748898
0.000750217
0.000751519
0.000752806
0.000754078
0.000755334
0.000756574
0.000757799
0.000759008
0.000760202
0.000761381
0.000762545
0.000763693
0.000764827
0.000765945
0.000767049
0.000768137
0.000769211
0.000770269
0.000771313
0.000772342
0.000773357
0.000774357
0.000775342
0.000776313
0.000777269
0.000778211
0.000779139
0.000780052
0.000780951
0.000781836
0.000782707
0.000783563
0.000784406
0.000785234
0.000786049
0.00078685
0.000787637
0.00078841
0.000789169
0.000789915
0.000790647
0.000791365
0.00079207
0.000792761
0.000793439
0.000794104
0.000794755
0.000795393
0.000796018
0.000796629
0.000797227
0.000797813
0.000798385
0.000798944
0.00079949
0.000800023
0.000800544
0.000801051
0.000801546
0.000802028
0.000802498
0.000802955
0.000803399
0.000803831
0.00080425
0.000804657
0.000805051
0.000805433
0.000805803
0.000806161
0.000806506
0.00080684
0.000807161
0.00080747
0.000807767
0.000808052
0.000808325
0.000808587
0.000808836
0.000809074
0.0008093
0.000809515
0.000809718
0.000809909
0.000810089
0.000810257
0.000810414
0.000810559
0.000810694
0.000810817
0.000810928
0.000811029
0.000811118
0.000811197
0.000811264
0.00081132
0.000811366
0.0008114
0.000811424
0.000811437
0.00081144
0.000811431
0.000811412
0.000811383
0.000811343
0.000811293
0.000811232
0.000811161
0.00081108
0.000810988
0.000810887
0.000810775
0.000810653
0.000810521
0.00081038
0.000810228
0.000810067
0.000809896
0.000809716
0.000809526
0.000809326
0.000809117
0.000808899
0.000808671
0.000808434
0.000808188
0.000807932
0.000807668
0.000807395
0.000807112
0.000806821
0.000806522
0.000806213
0.000805896
0.000805571
0.000805237
0.000804895
0.000804544
0.000804186
0.000803819
0.000803444
0.000803062
0.000802671
0.000802273
0.000801867
0.000801454
0.000801033
0.000800605
0.00080017
0.000799727
0.000799278
0.000798822
0.000798358
0.000797888
0.000797412
0.000796929
0.000796439
0.000795943
0.000795441
0.000794933
0.00079442
0.0007939
0.000793375
0.000792844
0.000792307
0.000791766
0.000791219
0.000790667
0.000790111
0.000789549
0.000788983
0.000788413
0.000787838
0.000787259
0.000786676
0.00078609
0.000785499
0.000784905
0.000784308
0.000783707
0.000783103
0.000782497
0.000781887
0.000781275
0.000780661
0.000780045
0.000779426
0.000778806
0.000778183
0.00077756
0.000776935
0.000776309
0.000775682
0.000775054
0.000774426
0.000773797
0.000773169
0.00077254
0.000771911
0.000771283
0.000770656
0.00077003
0.000769404
0.00076878
0.000768158
0.000767537
0.000766918
0.000766301
0.000765687
0.000765075
0.000764466
0.00076386
0.000763257
0.000762658
0.000762062
0.000761471
0.000760883
0.0007603
0.000759722
0.000759148
0.000758579
0.000758016
0.000757458
0.000756906
0.00075636
0.00075582
0.000755287
0.00075476
0.00075424
0.000753727
0.000753222
0.000752724
0.000752234
0.000751752
0.000751278
0.000750812
0.000750355
0.000749907
0.000749467
0.000749037
0.000748617
0.000748206
0.000747805
0.000747413
0.000747032
0.000746662
0.000746302
0.000745952
0.000745614
0.000745286
0.00074497
0.000744665
0.000744372
0.00074409
0.00074382
0.000743562
0.000743317
0.000743083
0.000742861
0.000742653
0.000742456
0.000742272
0.000742101
0.000741943
0.000741798
0.000741665
0.000741546
0.00074144
0.000741347
0.000741267
0.0007412
0.000741147
0.000741107
0.00074108
0.000741067
0.000741067
0.00074108
0.000741107
0.000741147
0.0007412
0.000741267
0.000741347
0.00074144
0.000741546
0.000741665
0.000741798
0.000741943
0.000742101
0.000742272
0.000742456
0.000742653
0.000742861
0.000743083
0.000743317
0.000743562
0.00074382
0.00074409
0.000744372
0.000744665
0.00074497
0.000745286
0.000745614
0.000745952
0.000746302
0.000746662
0.000747032
0.000747413
0.000747805
0.000748206
0.000748617
0.000749037
0.000749467
0.000749907
0.000750355
0.000750812
0.000751278
0.000751752
0.000752234
0.000752724
0.000753222
0.000753727
0.00075424
0.00075476
0.000755287
0.00075582
0.00075636
0.000756906
0.000757458
0.000758016
0.000758579
0.000759148
0.000759722
0.0007603
0.000760883
0.000761471
0.000762062
0.000762658
0.000763257
0.00076386
0.000764466
0.000765075
0.000765687
0.000766301
0.000766918
0.000767537
0.000768158
0.00076878
0.000769404
0.00077003
0.000770656
0.000771283
0.000771911
0.00077254
0.000773169
0.000773797
0.000774426
0.000775054
0.000775682
0.000776309
0.000776935
0.00077756
0.000778183
0.000778806
0.000779426
0.000780045
0.000780661
0.000781275
0.000781887
0.000782497
0.000783103
0.000783707
0.000784308
0.000784905
0.000785499
0.00078609
0.000786676
0.000787259
0.000787838
0.000788413
0.000788983
0.000789549
0.000790111
0.000790667
0.000791219
0.000791766
0.000792307
0.000792844
0.000793375
0.0007939
0.00079442
0.000794933
0.000795441
0.000795943
0.000796439
0.000796929
0.000797412
0.000797888
0.000798358
0.000798822
0.000799278
0.000799727
0.00080017
0.000800605
0.000801033
0.000801454
0.000801867
0.000802273
0.000802671
0.000803062
0.000803444
0.000803819
0.000804186
0.000804544
0.000804895
0.000805237
0.000805571
0.000805896
0.000806213
0.000806522
0.000806821
0.000807112
0.000807395
0.000807668
0.000807932
0.000808188
0.000808434
0.000808671
0.000808899
0.000809117
0.000809326
0.000809526
0.000809716
0.000809896
0.000810067
0.000810228
0.00081038
0.000810521
0.000810653
0.000810775
0.000810887
0.000810988
0.00081108
0.000811161
0.000811232
0.000811293
0.000811343
0.000811383
0.000811412
0.000811431
0.00081144
0.000811437
0.000811424
0.0008114
0.000811366
0.00081132
0.000811264
0.000811197
0.000811118
0.000811029
0.000810928
0.000810817
0.000810694
0.000810559
0.000810414
0.000810257
0.000810089
0.000809909
0.000809718
0.000809515
0.0008093
0.000809074
0.000808836
0.000808587
0.000808325
0.000808052
0.000807767
0.00080747
0.000807161
0.00080684
0.000806506
0.000806161
0.000805803
0.000805434
0.000805051
0.000804657
0.00080425
0.000803831
0.000803399
0.000802955
0.000802498
0.000802028
0.000801546
0.000801051
0.000800544
0.000800023
0.00079949
0.000798944
0.000798385
0.000797813
0.000797227
0.000796629
0.000796018
0.000795393
0.000794755
0.000794104
0.000793439
0.000792761
0.00079207
0.000791365
0.000790647
0.000789915
0.000789169
0.00078841
0.000787637
0.00078685
0.000786049
0.000785234
0.000784406
0.000783563
0.000782707
0.000781836
0.000780951
0.000780052
0.000779139
0.000778211
0.000777269
0.000776313
0.000775342
0.000774357
0.000773357
0.000772342
0.000771313
0.000770269
0.000769211
0.000768137
0.000767049
0.000765945
0.000764827
0.000763694
0.000762545
0.000761381
0.000760202
0.000759008
0.000757799
0.000756574
0.000755334
0.000754078
0.000752806
0.00075152
0.000750217
0.000748899
0.000747564
0.000746214
0.000744849
0.000743467
0.000742069
0.000740655
0.000739225
0.000737779
0.000736316
0.000734838
0.000733342
0.000731831
0.000730303
0.000728758
0.000727197
0.000725619
0.000724025
0.000722414
0.000720785
0.00071914
0.000717478
0.000715799
0.000714103
0.00071239
0.000710659
0.000708911
0.000707146
0.000705364
0.000703564
0.000701746
0.000699911
0.000698059
0.000696188
0.0006943
0.000692394
0.00069047
0.000688528
0.000686568
0.00068459
0.000682594
0.00068058
0.000678547
0.000676496
0.000674427
0.000672339
0.000670233
0.000668108
0.000665964
0.000663801
0.00066162
0.00065942
0.000657201
0.000654963
0.000652706
0.00065043
0.000648135
0.00064582
0.000643486
0.000641133
0.00063876
0.000636368
0.000633956
0.000631525
0.000629074
0.000626603
0.000624112
0.000621601
0.000619071
0.00061652
0.000613949
0.000611358
0.000608747
0.000606116
0.000603464
0.000600792
0.000598099
0.000595385
0.000592652
0.000589897
0.000587122
0.000584325
0.000581508
0.00057867
0.000575811
0.000572931
0.00057003
0.000567107
0.000564164
0.000561199
0.000558212
0.000555204
0.000552175
0.000549124
0.000546051
0.000542957
0.000539841
0.000536703
0.000533543
0.000530361
0.000527157
0.000523931
0.000520683
0.000517413
0.00051412
0.000510806
0.000507468
0.000504109
0.000500727
0.000497322
0.000493894
0.000490444
0.000486972
0.000483476
0.000479958
0.000476417
0.000472852
0.000469265
0.000465655
0.000462021
0.000458365
0.000454685
0.000450982
0.000447256
0.000443506
0.000439733
0.000435937
0.000432116
0.000428273
0.000424406
0.000420515
0.0004166
0.000412662
0.0004087
0.000404714
0.000400705
0.000396671
0.000392614
0.000388532
0.000384427
0.000380298
0.000376145
0.000371967
0.000367766
0.00036354
0.00035929
0.000355017
0.000350719
0.000346396
0.00034205
0.00033768
0.000333285
0.000328866
0.000324423
0.000319956
0.000315464
0.000310949
0.000306409
0.000301845
0.000297257
0.000292645
0.000288009
0.000283349
0.000278665
0.000273957
0.000269226
0.000264471
0.000259692
0.000254889
0.000250063
0.000245214
0.000240341
0.000235446
0.000230527
0.000225586
0.000220622
0.000215636
0.000210627
0.000205597
0.000200545
0.000195471
0.000190376
0.000185261
0.000180125
0.00017497
0.000169795
0.0001646
0.000159388
0.000154157
0.00014891
0.000143646
0.000138367
0.000133072
0.000127765
0.000122445
0.000117114
0.000111773
0.000106425
0.000101071
9.57123e-05
9.03529e-05
8.4995e-05
7.96421e-05
7.42981e-05
6.89676e-05
6.36561e-05
5.837e-05
5.31173e-05
4.79077e-05
4.2753e-05
3.76685e-05
3.26732e-05
2.77924e-05
2.30596e-05
1.85203e-05
1.42382e-05
1.03024e-05
6.83659e-06
3.9981e-06
1.94201e-06
7.20825e-07
1.81824e-07
2.57411e-08
1.64087e-09
4.572e-10
)
;

boundaryField
{
    top_wall
    {
        type            nutLowReWallFunction;
        value           uniform 0;
    }
    inlet
    {
        type            cyclic;
    }
    bot_wall
    {
        type            nutLowReWallFunction;
        value           uniform 0;
    }
    outlet
    {
        type            cyclic;
    }
    frontAndBack
    {
        type            empty;
    }
}


// ************************************************************************* //
